# epsilon and Z* of atoms 1 3 5 6 9
   3.56505689    0.00000000    0.12530726    0.00000000    3.89243510    0.00000000    0.12530965    0.00000000    3.65765273 
   3.43514646   -0.04247230   -0.28301865    0.04785178    3.36399087   -0.21037690    0.43356125    0.19505597    3.15537731 
   3.13365587    0.04707336    0.09407915   -0.09206119    3.42561531    0.18566455   -0.36594455   -0.11103120    3.40757646 
  -1.36476448   -0.30703041   -0.30323702   -0.30357490   -2.64964833   -0.07129373   -0.30222384    0.04570309   -2.84012791 
  -2.40020884    0.31628365   -0.61948649    0.21335093   -2.88545151   -0.20050100   -0.75210662   -0.23339950   -1.80811075 
  -2.80382902    0.06711735    1.11166302    0.01748126   -1.25450635    0.03042688    0.98671376   -0.05843145   -1.91471511 
