natom:  120
displacements:
- atom:    1
  displacement:
    [   0.0099999916303774,  0.0000000000000000,  0.0000129380207543 ]
- atom:    1
  displacement:
    [  -0.0099999916303774,  0.0000000000000000, -0.0000129380207543 ]
- atom:    1
  displacement:
    [   0.0000000000000000,  0.0100000000000000,  0.0000000000000000 ]
- atom:    1
  displacement:
    [   0.0000000000000000, -0.0100000000000000,  0.0000000000000000 ]
- atom:    1
  displacement:
    [  -0.0045046335095062,  0.0000000000000000,  0.0089279492015263 ]
- atom:    1
  displacement:
    [   0.0045046335095062,  0.0000000000000000, -0.0089279492015263 ]
- atom:   25
  displacement:
    [   0.0099999916303774,  0.0000000000000000,  0.0000129380207543 ]
- atom:   25
  displacement:
    [  -0.0099999916303774,  0.0000000000000000, -0.0000129380207543 ]
- atom:   25
  displacement:
    [   0.0000000000000000,  0.0100000000000000,  0.0000000000000000 ]
- atom:   25
  displacement:
    [   0.0000000000000000, -0.0100000000000000,  0.0000000000000000 ]
- atom:   25
  displacement:
    [  -0.0045046335095062,  0.0000000000000000,  0.0089279492015263 ]
- atom:   25
  displacement:
    [   0.0045046335095062,  0.0000000000000000, -0.0089279492015263 ]
- atom:   49
  displacement:
    [   0.0099999916303774,  0.0000000000000000,  0.0000129380207543 ]
- atom:   49
  displacement:
    [  -0.0099999916303774,  0.0000000000000000, -0.0000129380207543 ]
- atom:   49
  displacement:
    [   0.0000000000000000,  0.0100000000000000,  0.0000000000000000 ]
- atom:   49
  displacement:
    [   0.0000000000000000, -0.0100000000000000,  0.0000000000000000 ]
- atom:   49
  displacement:
    [  -0.0045046335095062,  0.0000000000000000,  0.0089279492015263 ]
- atom:   49
  displacement:
    [   0.0045046335095062,  0.0000000000000000, -0.0089279492015263 ]
- atom:   61
  displacement:
    [   0.0099999916303774,  0.0000000000000000,  0.0000129380207543 ]
- atom:   61
  displacement:
    [  -0.0099999916303774,  0.0000000000000000, -0.0000129380207543 ]
- atom:   61
  displacement:
    [   0.0000000000000000,  0.0100000000000000,  0.0000000000000000 ]
- atom:   61
  displacement:
    [   0.0000000000000000, -0.0100000000000000,  0.0000000000000000 ]
- atom:   61
  displacement:
    [  -0.0045046335095062,  0.0000000000000000,  0.0089279492015263 ]
- atom:   61
  displacement:
    [   0.0045046335095062,  0.0000000000000000, -0.0089279492015263 ]
- atom:   97
  displacement:
    [   0.0099999916303774,  0.0000000000000000,  0.0000129380207543 ]
- atom:   97
  displacement:
    [  -0.0099999916303774,  0.0000000000000000, -0.0000129380207543 ]
- atom:   97
  displacement:
    [   0.0000000000000000,  0.0100000000000000,  0.0000000000000000 ]
- atom:   97
  displacement:
    [   0.0000000000000000, -0.0100000000000000,  0.0000000000000000 ]
- atom:   97
  displacement:
    [  -0.0045046335095062,  0.0000000000000000,  0.0089279492015263 ]
- atom:   97
  displacement:
    [   0.0045046335095062,  0.0000000000000000, -0.0089279492015263 ]
lattice:
- [    10.7429479600000004,     0.0000000000000000,     0.0138992600000000 ] # a
- [     0.0000000000000000,    14.9591423700000004,     0.0000000000000000 ] # b
- [    -4.8557729399999996,     0.0000000000000000,     9.6238892800000002 ] # c
atoms:
- symbol: Si # 1
  position: [  0.1663417000000000,  0.2284366200000000,  0.2388909850000000 ]
  mass: 28.085500
- symbol: Si # 2
  position: [  0.6663417000000000,  0.2284366200000000,  0.2388909850000000 ]
  mass: 28.085500
- symbol: Si # 3
  position: [  0.1663417000000000,  0.5617699533333333,  0.2388909850000000 ]
  mass: 28.085500
- symbol: Si # 4
  position: [  0.6663417000000000,  0.5617699533333333,  0.2388909850000000 ]
  mass: 28.085500
- symbol: Si # 5
  position: [  0.1663417000000000,  0.8951032866666667,  0.2388909850000000 ]
  mass: 28.085500
- symbol: Si # 6
  position: [  0.6663417000000000,  0.8951032866666667,  0.2388909850000000 ]
  mass: 28.085500
- symbol: Si # 7
  position: [  0.1663417000000000,  0.2284366200000000,  0.7388909850000001 ]
  mass: 28.085500
- symbol: Si # 8
  position: [  0.6663417000000000,  0.2284366200000000,  0.7388909850000001 ]
  mass: 28.085500
- symbol: Si # 9
  position: [  0.1663417000000000,  0.5617699533333333,  0.7388909850000001 ]
  mass: 28.085500
- symbol: Si # 10
  position: [  0.6663417000000000,  0.5617699533333333,  0.7388909850000001 ]
  mass: 28.085500
- symbol: Si # 11
  position: [  0.1663417000000000,  0.8951032866666667,  0.7388909850000001 ]
  mass: 28.085500
- symbol: Si # 12
  position: [  0.6663417000000000,  0.8951032866666667,  0.7388909850000001 ]
  mass: 28.085500
- symbol: Si # 13
  position: [  0.3336583000000000,  0.0617699533333333,  0.2611090150000000 ]
  mass: 28.085500
- symbol: Si # 14
  position: [  0.8336583000000000,  0.0617699533333333,  0.2611090150000000 ]
  mass: 28.085500
- symbol: Si # 15
  position: [  0.3336583000000000,  0.3951032866666667,  0.2611090150000000 ]
  mass: 28.085500
- symbol: Si # 16
  position: [  0.8336583000000000,  0.3951032866666667,  0.2611090150000000 ]
  mass: 28.085500
- symbol: Si # 17
  position: [  0.3336583000000000,  0.7284366200000000,  0.2611090150000000 ]
  mass: 28.085500
- symbol: Si # 18
  position: [  0.8336583000000000,  0.7284366200000000,  0.2611090150000000 ]
  mass: 28.085500
- symbol: Si # 19
  position: [  0.3336583000000000,  0.0617699533333333,  0.7611090149999999 ]
  mass: 28.085500
- symbol: Si # 20
  position: [  0.8336583000000000,  0.0617699533333333,  0.7611090149999999 ]
  mass: 28.085500
- symbol: Si # 21
  position: [  0.3336583000000000,  0.3951032866666667,  0.7611090149999999 ]
  mass: 28.085500
- symbol: Si # 22
  position: [  0.8336583000000000,  0.3951032866666667,  0.7611090149999999 ]
  mass: 28.085500
- symbol: Si # 23
  position: [  0.3336583000000000,  0.7284366200000000,  0.7611090149999999 ]
  mass: 28.085500
- symbol: Si # 24
  position: [  0.8336583000000000,  0.7284366200000000,  0.7611090149999999 ]
  mass: 28.085500
- symbol: Ge # 25
  position: [  0.4880573800000000,  0.2279388066666667,  0.4116323650000000 ]
  mass: 72.640000
- symbol: Ge # 26
  position: [  0.9880573800000000,  0.2279388066666667,  0.4116323650000000 ]
  mass: 72.640000
- symbol: Ge # 27
  position: [  0.4880573800000000,  0.5612721399999999,  0.4116323650000000 ]
  mass: 72.640000
- symbol: Ge # 28
  position: [  0.9880573800000000,  0.5612721399999999,  0.4116323650000000 ]
  mass: 72.640000
- symbol: Ge # 29
  position: [  0.4880573800000000,  0.8946054733333333,  0.4116323650000000 ]
  mass: 72.640000
- symbol: Ge # 30
  position: [  0.9880573800000000,  0.8946054733333333,  0.4116323650000000 ]
  mass: 72.640000
- symbol: Ge # 31
  position: [  0.4880573800000000,  0.2279388066666667,  0.9116323650000000 ]
  mass: 72.640000
- symbol: Ge # 32
  position: [  0.9880573800000000,  0.2279388066666667,  0.9116323650000000 ]
  mass: 72.640000
- symbol: Ge # 33
  position: [  0.4880573800000000,  0.5612721399999999,  0.9116323650000000 ]
  mass: 72.640000
- symbol: Ge # 34
  position: [  0.9880573800000000,  0.5612721399999999,  0.9116323650000000 ]
  mass: 72.640000
- symbol: Ge # 35
  position: [  0.4880573800000000,  0.8946054733333333,  0.9116323650000000 ]
  mass: 72.640000
- symbol: Ge # 36
  position: [  0.9880573800000000,  0.8946054733333333,  0.9116323650000000 ]
  mass: 72.640000
- symbol: Ge # 37
  position: [  0.0119426200000000,  0.0612721400000000,  0.0883676350000000 ]
  mass: 72.640000
- symbol: Ge # 38
  position: [  0.5119426200000000,  0.0612721400000000,  0.0883676350000000 ]
  mass: 72.640000
- symbol: Ge # 39
  position: [  0.0119426200000000,  0.3946054733333333,  0.0883676350000000 ]
  mass: 72.640000
- symbol: Ge # 40
  position: [  0.5119426200000000,  0.3946054733333333,  0.0883676350000000 ]
  mass: 72.640000
- symbol: Ge # 41
  position: [  0.0119426200000000,  0.7279388066666667,  0.0883676350000000 ]
  mass: 72.640000
- symbol: Ge # 42
  position: [  0.5119426200000000,  0.7279388066666667,  0.0883676350000000 ]
  mass: 72.640000
- symbol: Ge # 43
  position: [  0.0119426200000000,  0.0612721400000000,  0.5883676350000000 ]
  mass: 72.640000
- symbol: Ge # 44
  position: [  0.5119426200000000,  0.0612721400000000,  0.5883676350000000 ]
  mass: 72.640000
- symbol: Ge # 45
  position: [  0.0119426200000000,  0.3946054733333333,  0.5883676350000000 ]
  mass: 72.640000
- symbol: Ge # 46
  position: [  0.5119426200000000,  0.3946054733333333,  0.5883676350000000 ]
  mass: 72.640000
- symbol: Ge # 47
  position: [  0.0119426200000000,  0.7279388066666667,  0.5883676350000000 ]
  mass: 72.640000
- symbol: Ge # 48
  position: [  0.5119426200000000,  0.7279388066666667,  0.5883676350000000 ]
  mass: 72.640000
- symbol: N  # 49
  position: [  0.4537264900000000,  0.1090531800000000,  0.4152170000000000 ]
  mass: 14.006700
- symbol: N  # 50
  position: [  0.9537264900000000,  0.1090531800000000,  0.4152170000000000 ]
  mass: 14.006700
- symbol: N  # 51
  position: [  0.4537264900000000,  0.4423865133333333,  0.4152170000000000 ]
  mass: 14.006700
- symbol: N  # 52
  position: [  0.9537264900000000,  0.4423865133333333,  0.4152170000000000 ]
  mass: 14.006700
- symbol: N  # 53
  position: [  0.4537264900000000,  0.7757198466666667,  0.4152170000000000 ]
  mass: 14.006700
- symbol: N  # 54
  position: [  0.9537264900000000,  0.7757198466666667,  0.4152170000000000 ]
  mass: 14.006700
- symbol: N  # 55
  position: [  0.4537264900000000,  0.1090531800000000,  0.9152169999999999 ]
  mass: 14.006700
- symbol: N  # 56
  position: [  0.9537264900000000,  0.1090531800000000,  0.9152169999999999 ]
  mass: 14.006700
- symbol: N  # 57
  position: [  0.4537264900000000,  0.4423865133333333,  0.9152169999999999 ]
  mass: 14.006700
- symbol: N  # 58
  position: [  0.9537264900000000,  0.4423865133333333,  0.9152169999999999 ]
  mass: 14.006700
- symbol: N  # 59
  position: [  0.4537264900000000,  0.7757198466666667,  0.9152169999999999 ]
  mass: 14.006700
- symbol: N  # 60
  position: [  0.9537264900000000,  0.7757198466666667,  0.9152169999999999 ]
  mass: 14.006700
- symbol: N  # 61
  position: [  0.1746225400000000,  0.1153935300000000,  0.2100039800000000 ]
  mass: 14.006700
- symbol: N  # 62
  position: [  0.6746225400000000,  0.1153935300000000,  0.2100039800000000 ]
  mass: 14.006700
- symbol: N  # 63
  position: [  0.1746225400000000,  0.4487268633333333,  0.2100039800000000 ]
  mass: 14.006700
- symbol: N  # 64
  position: [  0.6746225400000000,  0.4487268633333333,  0.2100039800000000 ]
  mass: 14.006700
- symbol: N  # 65
  position: [  0.1746225400000000,  0.7820601966666666,  0.2100039800000000 ]
  mass: 14.006700
- symbol: N  # 66
  position: [  0.6746225400000000,  0.7820601966666666,  0.2100039800000000 ]
  mass: 14.006700
- symbol: N  # 67
  position: [  0.1746225400000000,  0.1153935300000000,  0.7100039800000000 ]
  mass: 14.006700
- symbol: N  # 68
  position: [  0.6746225400000000,  0.1153935300000000,  0.7100039800000000 ]
  mass: 14.006700
- symbol: N  # 69
  position: [  0.1746225400000000,  0.4487268633333333,  0.7100039800000000 ]
  mass: 14.006700
- symbol: N  # 70
  position: [  0.6746225400000000,  0.4487268633333333,  0.7100039800000000 ]
  mass: 14.006700
- symbol: N  # 71
  position: [  0.1746225400000000,  0.7820601966666666,  0.7100039800000000 ]
  mass: 14.006700
- symbol: N  # 72
  position: [  0.6746225400000000,  0.7820601966666666,  0.7100039800000000 ]
  mass: 14.006700
- symbol: N  # 73
  position: [  0.3253774600000000,  0.2820601966666667,  0.2899960200000000 ]
  mass: 14.006700
- symbol: N  # 74
  position: [  0.8253774600000000,  0.2820601966666667,  0.2899960200000000 ]
  mass: 14.006700
- symbol: N  # 75
  position: [  0.3253774600000000,  0.6153935300000000,  0.2899960200000000 ]
  mass: 14.006700
- symbol: N  # 76
  position: [  0.8253774600000000,  0.6153935300000000,  0.2899960200000000 ]
  mass: 14.006700
- symbol: N  # 77
  position: [  0.3253774600000000,  0.9487268633333333,  0.2899960200000000 ]
  mass: 14.006700
- symbol: N  # 78
  position: [  0.8253774600000000,  0.9487268633333333,  0.2899960200000000 ]
  mass: 14.006700
- symbol: N  # 79
  position: [  0.3253774600000000,  0.2820601966666667,  0.7899960200000000 ]
  mass: 14.006700
- symbol: N  # 80
  position: [  0.8253774600000000,  0.2820601966666667,  0.7899960200000000 ]
  mass: 14.006700
- symbol: N  # 81
  position: [  0.3253774600000000,  0.6153935300000000,  0.7899960200000000 ]
  mass: 14.006700
- symbol: N  # 82
  position: [  0.8253774600000000,  0.6153935300000000,  0.7899960200000000 ]
  mass: 14.006700
- symbol: N  # 83
  position: [  0.3253774600000000,  0.9487268633333333,  0.7899960200000000 ]
  mass: 14.006700
- symbol: N  # 84
  position: [  0.8253774600000000,  0.9487268633333333,  0.7899960200000000 ]
  mass: 14.006700
- symbol: N  # 85
  position: [  0.0462735100000000,  0.2757198466666667,  0.0847830000000000 ]
  mass: 14.006700
- symbol: N  # 86
  position: [  0.5462735100000000,  0.2757198466666667,  0.0847830000000000 ]
  mass: 14.006700
- symbol: N  # 87
  position: [  0.0462735100000000,  0.6090531800000000,  0.0847830000000000 ]
  mass: 14.006700
- symbol: N  # 88
  position: [  0.5462735100000000,  0.6090531800000000,  0.0847830000000000 ]
  mass: 14.006700
- symbol: N  # 89
  position: [  0.0462735100000000,  0.9423865133333335,  0.0847830000000000 ]
  mass: 14.006700
- symbol: N  # 90
  position: [  0.5462735100000000,  0.9423865133333335,  0.0847830000000000 ]
  mass: 14.006700
- symbol: N  # 91
  position: [  0.0462735100000000,  0.2757198466666667,  0.5847830000000001 ]
  mass: 14.006700
- symbol: N  # 92
  position: [  0.5462735100000000,  0.2757198466666667,  0.5847830000000001 ]
  mass: 14.006700
- symbol: N  # 93
  position: [  0.0462735100000000,  0.6090531800000000,  0.5847830000000001 ]
  mass: 14.006700
- symbol: N  # 94
  position: [  0.5462735100000000,  0.6090531800000000,  0.5847830000000001 ]
  mass: 14.006700
- symbol: N  # 95
  position: [  0.0462735100000000,  0.9423865133333335,  0.5847830000000001 ]
  mass: 14.006700
- symbol: N  # 96
  position: [  0.5462735100000000,  0.9423865133333335,  0.5847830000000001 ]
  mass: 14.006700
- symbol: O  # 97
  position: [  0.1183943250000000,  0.2511784266666667,  0.3594752950000000 ]
  mass: 15.999400
- symbol: O  # 98
  position: [  0.6183943250000000,  0.2511784266666667,  0.3594752950000000 ]
  mass: 15.999400
- symbol: O  # 99
  position: [  0.1183943250000000,  0.5845117599999999,  0.3594752950000000 ]
  mass: 15.999400
- symbol: O  # 100
  position: [  0.6183943250000000,  0.5845117599999999,  0.3594752950000000 ]
  mass: 15.999400
- symbol: O  # 101
  position: [  0.1183943250000000,  0.9178450933333333,  0.3594752950000000 ]
  mass: 15.999400
- symbol: O  # 102
  position: [  0.6183943250000000,  0.9178450933333333,  0.3594752950000000 ]
  mass: 15.999400
- symbol: O  # 103
  position: [  0.1183943250000000,  0.2511784266666667,  0.8594752950000000 ]
  mass: 15.999400
- symbol: O  # 104
  position: [  0.6183943250000000,  0.2511784266666667,  0.8594752950000000 ]
  mass: 15.999400
- symbol: O  # 105
  position: [  0.1183943250000000,  0.5845117599999999,  0.8594752950000000 ]
  mass: 15.999400
- symbol: O  # 106
  position: [  0.6183943250000000,  0.5845117599999999,  0.8594752950000000 ]
  mass: 15.999400
- symbol: O  # 107
  position: [  0.1183943250000000,  0.9178450933333333,  0.8594752950000000 ]
  mass: 15.999400
- symbol: O  # 108
  position: [  0.6183943250000000,  0.9178450933333333,  0.8594752950000000 ]
  mass: 15.999400
- symbol: O  # 109
  position: [  0.3816056750000000,  0.0845117600000000,  0.1405247050000000 ]
  mass: 15.999400
- symbol: O  # 110
  position: [  0.8816056750000000,  0.0845117600000000,  0.1405247050000000 ]
  mass: 15.999400
- symbol: O  # 111
  position: [  0.3816056750000000,  0.4178450933333333,  0.1405247050000000 ]
  mass: 15.999400
- symbol: O  # 112
  position: [  0.8816056750000000,  0.4178450933333333,  0.1405247050000000 ]
  mass: 15.999400
- symbol: O  # 113
  position: [  0.3816056750000000,  0.7511784266666667,  0.1405247050000000 ]
  mass: 15.999400
- symbol: O  # 114
  position: [  0.8816056750000000,  0.7511784266666667,  0.1405247050000000 ]
  mass: 15.999400
- symbol: O  # 115
  position: [  0.3816056750000000,  0.0845117600000000,  0.6405247050000000 ]
  mass: 15.999400
- symbol: O  # 116
  position: [  0.8816056750000000,  0.0845117600000000,  0.6405247050000000 ]
  mass: 15.999400
- symbol: O  # 117
  position: [  0.3816056750000000,  0.4178450933333333,  0.6405247050000000 ]
  mass: 15.999400
- symbol: O  # 118
  position: [  0.8816056750000000,  0.4178450933333333,  0.6405247050000000 ]
  mass: 15.999400
- symbol: O  # 119
  position: [  0.3816056750000000,  0.7511784266666667,  0.6405247050000000 ]
  mass: 15.999400
- symbol: O  # 120
  position: [  0.8816056750000000,  0.7511784266666667,  0.6405247050000000 ]
  mass: 15.999400