 120  120
1 1
    36.875474025630709    -1.633072300237179    -2.071821716752223
    -1.637203999999999    37.520282500000000     2.057325999999993
    -2.076563565353728     2.059382549999491    37.323315237056754
1 2
    -1.302379902061332    -0.141575137541572     0.221055352588004
    -0.141644500000000     0.694671000000000     0.355792500000000
     0.220908610314444     0.355942425251928     0.363140882137789
1 3
     0.160742268376361    -0.077369228981291    -0.051840289826263
     0.122106000000000    -0.978419000000000    -0.129453500000000
    -0.065028370835550     0.198379822571507     0.102215354579985
1 4
    -0.234476262310597     0.064855067163725     0.080363156397326
    -0.046594500000000    -0.236660000000000     0.055378500000000
    -0.014634338238142    -0.066867169348471     0.002249852321477
1 5
     0.160727895765227     0.122063579086259    -0.064845259030201
    -0.077260000000000    -0.978402000000000     0.198313000000000
    -0.051987273263628    -0.129445551858673     0.102183138887482
1 6
    -0.234390215089953    -0.046547685357069    -0.014648970249522
     0.064708000000000    -0.236720000000000    -0.066961000000000
     0.080397856954957     0.055376629681773     0.002286276195518
1 7
     0.241486931014451    -0.146352013243660     0.516896953318925
    -0.146471500000000     0.415147500000000    -0.004715500000000
     0.516903716339084    -0.004721933569456    -1.064320982190785
1 8
    -0.364785762686906     0.113492089323476    -0.618231055088911
     0.113462000000000     0.750068500000000    -0.159262000000000
    -0.618365544625456    -0.159216265604041    -0.502366134274613
1 9
     0.036688863823890     0.115220617227426     0.063400376358304
    -0.053155500000000    -0.169868500000000     0.048727000000000
     0.151620473509794    -0.104746154524656    -0.138215340643977
1 10
    -0.070401412860985    -0.021901197891076    -0.158669796656358
     0.003259500000000    -0.229531500000000     0.013090500000000
    -0.160492911770288     0.026804378550969    -0.076778470339815
1 11
     0.036647141296430    -0.052972378227949     0.151567511648543
     0.115268500000000    -0.170033500000000    -0.104757000000000
     0.063293588253717     0.048951762615476    -0.138262873165146
1 12
    -0.070350135246890     0.003185929910966    -0.160494802388992
    -0.021977000000000    -0.229604500000000     0.026825000000000
    -0.158775161533076     0.013195801631100    -0.076775220094873
1 13
    -0.143928536954210     1.853042365645746     0.460931630802344
     3.991508500000000    -2.157216500000001     1.408324000000000
     0.826568848330842     0.249408535438553     0.795527383655964
1 14
    -0.582446485473120    -0.359213947126779    -0.389343016065010
    -0.684177000000000    -0.002367000000000     0.841022500000000
    -0.096616024182672     0.261745196342652     0.804365844948316
1 15
    -0.143912062382538    -3.991396487541073     0.826485140423286
    -1.852946500000000    -2.157196000000000    -0.249337000000000
     0.460999363735834    -1.408525416492403     0.795369966648746
1 16
    -0.582497289195899     0.684143651207261    -0.096665148148049
     0.359172500000000    -0.002449000000000    -0.261778000000000
    -0.389316373743945    -0.840993089675313     0.804270809832045
1 17
    -0.014203038475056    -0.066148862545626     0.044904906581505
     0.066177500000000    -0.519431000000000     0.001413500000000
     0.044849663445666    -0.001308406060011    -0.012265398312637
1 18
    -0.003456286072954     0.018779973057431    -0.053635863542938
    -0.018805000000000    -0.299416000000000     0.003368500000000
    -0.053498770129764    -0.003445147744861     0.043916030761706
1 19
     0.295692233084112    -0.097258137373032     0.085639670974373
    -0.164853000000000     0.083247000000000     0.052981000000000
     0.085031861686850     0.114048334318839    -0.209150458435239
1 20
    -0.355351527669928    -0.030569674904264    -0.114304057439281
    -0.070569500000000    -0.096254500000000    -0.270185000000000
    -0.198847838302291    -0.140555255593740    -0.733140135507773
1 21
     0.295642897202515     0.164849706031445     0.084995071701251
     0.097304000000000     0.083275500000000    -0.114034000000000
     0.085677895821268    -0.052997332253819    -0.209074145667468
1 22
    -0.355327417963163     0.070646028499560    -0.198910227549445
     0.030695500000000    -0.096221000000000     0.140582500000000
    -0.114298342292172     0.270157727474559    -0.733063386525974
1 23
     0.081940064330985     0.007649037314052    -0.020229236243606
    -0.007741000000000    -0.232711000000000    -0.006297500000000
    -0.020092524766257     0.006159433545045     0.016014282935312
1 24
    -0.057620278309135     0.037838064102754     0.026843586994523
    -0.037706500000000    -0.294354000000000    -0.105546500000000
     0.026843428215365     0.105477931183918    -0.061883134193312
1 25
    -3.099777292461334     1.083903986242712    -2.674949202635424
    -0.471986500000000     2.216614000000000    -0.935787500000000
    -1.730791732213935     0.021966995229177    -1.015639270535751
1 26
    -4.344350526767585    -0.240051129982555     2.005148001422748
     0.546365499999999     0.503778500000000    -0.077164500000000
     3.639962247379964     0.387562424223271    -1.599026024793142
1 27
    -0.093505009052909    -0.516530209174889     0.080489097911992
    -0.070673500000000    -0.425386500000000    -0.078483500000000
     0.044389164181830    -0.202289937829473     0.013502416387369
1 28
     0.099211181155738     0.316339964850863    -0.035888680862010
     0.145555000000000    -0.250770500000000    -0.089380000000000
    -0.109056958868193    -0.194156502776746     0.075475860174229
1 29
    -0.084396608303362     0.159256603467775     0.012179965654383
     0.339201500000000    -0.365635000000000     0.416103500000000
     0.110942523057667     0.100502098784084     0.131430102809139
1 30
     0.135187850694748    -0.169824200956105    -0.045840178138036
    -0.326037500000000    -0.227909000000000     0.208847000000000
    -0.096798072902853     0.144580707675548     0.052279844670025
1 31
     0.101977758184702    -0.012362721003777     0.147671873822126
     0.059657000000000     0.454371500000000     0.019242000000000
    -0.160900061238172     0.030692991919226     0.089851280862304
1 32
     0.168808643141726    -0.727352371993046    -0.897919813367778
    -0.393055000000000     1.973377000000000     0.913612000000001
     0.075357851551785    -0.912223589568181    -4.051576556233330
1 33
     0.012972109941422    -0.038244111046903     0.012145597775349
     0.026859500000000    -0.193713000000000    -0.005592000000000
    -0.072344206299746    -0.071433617034260     0.022346841612597
1 34
     0.043612779350295     0.247734565160883     0.079599659820535
     0.008848500000000    -0.383736000000000     0.121076500000000
     0.189176657391296     0.555836319368651     0.035482089763539
1 35
     0.044356885256109    -0.013673758226421     0.022433911438080
    -0.050298000000000    -0.170272500000000    -0.098727500000000
    -0.050895057536878     0.037677155514603    -0.005713904686869
1 36
    -0.054588772411938    -0.044475034410624     0.146057814527406
     0.033506500000000    -0.358711000000000    -0.650255000000000
     0.067418908078854    -0.103959342665600    -0.043818358004067
1 37
     1.093608012683473    -1.231892649814476     0.050837482899901
    -2.747857000000000    -2.243360500000000    -3.373478500000000
    -0.489330931571012    -1.775682136246748    -0.101205859329450
1 38
    -0.489950797686790     0.036641246972926     0.102988815234868
     0.632810000000000     0.054031500000000    -0.324175000000000
     0.198166026575099     0.080988967636680     0.038082303173634
1 39
     0.207678254840463     1.769825151550110    -0.357883178753813
     1.103688500000000    -2.179424500000001     1.724234500000000
    -0.974322924301896     3.620978676504210     0.910401398689346
1 40
    -0.794216455839316     0.001171158128638     0.231201740435001
    -0.361787500000000     0.093253500000000     0.203895500000000
    -0.115712358735018    -0.083982821241929     0.101988607558833
1 41
     0.054737745688293     0.044678261558940    -0.007356772721278
    -0.052025500000000    -0.547735000000000    -0.025397000000000
    -0.059282541218671     0.085233929650361     0.029576829921117
1 42
    -0.054583684380251    -0.022104557035616     0.019470009176875
     0.022243000000000    -0.273899500000000    -0.015433500000000
     0.046868602948242    -0.012336867722836    -0.005404908018877
1 43
    -0.121998733231623    -0.310534951274637     0.553546312272634
     0.062738000000000     0.151286000000000    -0.031707000000000
     0.203764647076679     0.221588273853214    -0.641789800024125
1 44
     0.242235999859747     0.222798786868536    -0.750550066409605
     0.054103000000000    -0.009598000000000     0.446498500000000
    -0.273455363904363     0.230251296776409    -0.415103502053667
1 45
    -0.186579876682496     0.512892296307998     0.220811313096984
    -0.060268500000000    -0.015712000000000    -0.043157500000000
     0.390879356112364    -0.462487306108049    -0.315835237868871
1 46
     0.128821642297978    -0.447776661468005    -0.792680136129166
    -0.079376500000000    -0.147327000000000    -0.365004000000000
    -0.353635604559125    -0.269912462496048    -0.279816612655042
1 47
    -0.042485108714893     0.028272543028638     0.018414614377511
     0.014302000000000    -0.259592500000000     0.041986000000000
     0.056479393447005     0.008487105270806    -0.029447290198009
1 48
     0.049641199346295    -0.077806247953280    -0.028961032426080
    -0.014403500000000    -0.313688000000000     0.096871000000000
    -0.036062547255260    -0.000245143843215     0.013532353302697
1 49
     0.154253080490564    -0.849468475504015     0.567507694857152
    -0.801113000000000    -0.685190500000000    -0.703678000000000
     0.193266511308932    -0.537744901057879    -0.012150138670738
1 50
     0.648031321187916     0.750759034405863    -0.210849630633594
    -0.131711000000000    -0.558804500000000    -0.197502500000000
    -0.654102220291417    -0.823855571982127     0.169233118858092
1 51
     0.286179435239323     1.168251814991450     0.403723834205978
     0.189554500000000     0.313038500000000     0.234572000000000
     0.033470561599917     0.318953570307625     0.094298577774910
1 52
     0.106086412573454    -0.375872288662480    -0.059024428342264
    -0.056610000000000     0.087347000000000     0.104525000000000
    -0.063629348487019     0.338517057498437    -0.074293480262703
1 53
     0.004218241008277     0.001541384300405    -0.004661715313833
    -0.005697500000000     0.370953500000000    -0.103658000000000
    -0.020665817651763     0.008592496399679    -0.039255299409024
1 54
    -0.005466513206419     0.027662898404184     0.019721511501372
     0.060181000000000     0.223930500000000    -0.031298000000000
     0.008122286517693    -0.027342088912952    -0.008884662831555
1 55
    -0.008798699386019     0.011480142503373    -0.072090903078605
    -0.080018500000000    -0.238640500000000     0.113812000000000
    -0.006807825036005    -0.012855826438369     0.037751323921504
1 56
    -0.022156940484445     0.312738156705101     0.021097014719966
     0.345932000000000    -0.674472500000000     0.985490500000000
     0.132494717064856     0.763721950750944     0.600171349377980
1 57
     0.024849235936009    -0.003922348112513    -0.099868711955236
     0.023503500000000     0.046052000000000    -0.030852000000000
     0.029590972676884     0.051665421570451    -0.003765360405392
1 58
     0.047113602809636    -0.439862191695483     0.184549269226336
    -0.045971500000000     0.156960000000000    -0.204767500000000
     0.023524945004609    -0.979807094643956     0.529745041728428
1 59
    -0.011997201904579     0.005218961252741    -0.010895915019585
     0.023365500000000     0.166830000000000     0.025024000000000
     0.004399330842250    -0.011173953839145    -0.003937310027251
1 60
     0.004058286308742    -0.036535738065272    -0.045537593848895
     0.052177500000000     0.376855000000000     0.146692000000000
    -0.002537414471243    -0.016457319219317     0.014342020313477
1 61
    -4.241116445813298     2.141439957287318    -0.362969857409367
     2.107818500000000   -16.433472000000002    -2.272855499999999
    -0.333979863933216    -1.880631534836418    -3.547641845588922
1 62
     0.397192820273783    -0.017571408344380     0.116347654941234
     0.003852000000000    -0.407537500000000    -0.169455500000000
    -0.071098848988850    -0.166259095043187    -0.194819259780499
1 63
    -0.732872555011123     0.284510881937434    -0.402219508542124
    -0.006585000000000     1.054553000000000    -0.054733500000000
    -0.355972821726765    -0.406278381017823    -0.738001676267328
1 64
     0.357187051788401    -0.149281916996043     0.093256771345058
    -0.017712000000000     0.096784000000000     0.002623000000000
     0.120765893522718     0.167175533893175    -0.075122226579877
1 65
    -0.051302482227916    -0.014111567650176    -0.016432021065515
    -0.041847500000000     0.498542000000000     0.014755000000000
    -0.013959407446383    -0.003821419649522    -0.035934930349490
1 66
     0.061029518912385     0.016946370775426     0.024087022237032
    -0.022560000000000     0.218295500000000     0.023327000000000
    -0.008863668716294    -0.024236003751400    -0.010435968035181
1 67
    -0.148409600598973     0.177843123271896    -0.188326124463627
     0.058626000000000    -0.267632500000000    -0.015429500000000
    -0.108999372422975     0.016250998885726     0.277837583193422
1 68
     0.186764338989882    -0.066845430506868     0.235239829288833
     0.073169500000000    -0.322360500000000    -0.017600500000000
     0.238303315999029     0.057871726431090     0.262689019039675
1 69
    -0.120238678875507    -0.160154895744338    -0.120461893407517
     0.007627000000000     0.066616500000000     0.019764000000000
    -0.078390475371625     0.140100023161506     0.104183312129388
1 70
     0.188122273711702     0.073112322322390     0.218062890774290
    -0.019667500000000     0.121573000000000     0.023013000000000
     0.215553634390889    -0.012568483576224     0.217414812869882
1 71
    -0.039016190686495     0.027054720601986    -0.034242245419304
    -0.026003000000000     0.175870000000000     0.023586500000000
    -0.005674723145939    -0.031456092843579     0.021809178059635
1 72
     0.056135031093772    -0.004307352067720     0.052900635522397
    -0.007153000000000     0.211469000000000     0.016347500000000
     0.060299709370002    -0.038376455188938     0.038575261538169
1 73
   -12.227040786048839    -4.836908376552380    -3.445729370210541
    -5.122718999999999    -6.828151999999999    -1.198510499999999
    -3.622615554466351    -1.097286659488864    -3.809325884148839
1 74
     1.247704321347442    -0.148172571048062     0.220049508361186
    -0.218404500000000    -0.196231000000000    -0.033608500000000
    -1.024713973791271     0.318013891788478    -0.504578096178649
1 75
    -0.088147086484543     0.115911672818906    -0.078224670040899
     0.081076000000000     0.479832000000000     0.021763000000000
    -0.081146330830350    -0.052230404088469    -0.055955568144462
1 76
     0.070830348204563    -0.079436244349737     0.043131990199334
    -0.000975000000000     0.230735000000000    -0.019541500000000
     0.032625606781283     0.051149913773566    -0.032040526347023
1 77
    -0.114441735368957    -0.178530930473832    -0.101126518451767
    -0.566351500000000     0.941354500000000    -0.444398000000000
    -0.309444869551535     0.208904480301635    -0.197531131048106
1 78
     0.142738305547715     0.257108084785643     0.063787079269181
     0.101033500000000     0.089789000000000    -0.120555000000000
    -0.010191729778668    -0.156801105619004    -0.117503198278858
1 79
    -0.223184701068670    -0.066582587770472    -0.179854353572933
     0.031182500000000    -0.178053500000000     0.040679000000000
    -0.103173221806144    -0.029732489514515     0.183337966549469
1 80
     0.436871130245640     0.026279630422074     0.394119797206366
    -0.205937500000000    -0.281690000000000    -0.425291000000000
     0.440743920447895    -0.065395185725684     0.811200319555744
1 81
    -0.061013981968433    -0.023332760591675    -0.028233497283625
     0.022722000000000     0.177378000000000    -0.011778000000000
    -0.019376300628350     0.029557119872987     0.007322335798512
1 82
     0.071111140765010    -0.088310705085927     0.060152202442801
     0.021439000000000     0.267121500000000    -0.023239500000000
     0.070272535542879    -0.206267119112121     0.109250019772480
1 83
    -0.071080930396240     0.031814516010216    -0.046099744236624
     0.001995000000000     0.019900000000000     0.013496500000000
    -0.017876842413316    -0.077669826456126     0.046920355153950
1 84
     0.091827207883387     0.085138772190023     0.029280415696950
     0.047949000000000     0.029042000000000     0.112945000000000
     0.107720473762495     0.154427846198956     0.135344356743672
1 85
    -3.948630309656092     2.018953798750008    -3.724540356349272
     2.113321500000000    -6.153017500000001     4.471054500000002
    -3.637724260794003     4.432587601330513   -13.615885524520813
1 86
     0.325936895459824    -0.036821281639086    -0.051475416298200
     0.071189500000000    -0.263053500000000    -0.100503000000000
    -0.052266621168441    -0.009854041185556    -0.228108139865367
1 87
    -0.057045549128703     0.007089570519287    -0.063945425404020
    -0.086085000000000     0.465356500000000    -0.081414000000000
    -0.012365582473796    -0.123716439031932    -0.079322887044822
1 88
     0.047135569140798     0.006007700360619    -0.018690268990713
    -0.017587500000000     0.191881500000000    -0.025188000000000
    -0.002341695196378     0.042359390698019    -0.015262498578504
1 89
    -0.121506462083920    -0.196166925825246    -0.271756339255095
     0.159709000000000     0.951593000000000     0.565967500000000
    -0.054212011045272     0.076334427659408    -0.054790602095452
1 90
     0.088972478828074    -0.028752604969393    -0.001749503343726
    -0.110949000000000     0.155047000000000     0.089009000000000
    -0.030069793676843    -0.025443687313083    -0.012365199319041
1 91
     0.351903904314264    -0.240617877523578    -0.631105765294282
    -0.059801000000000    -0.069416000000000     0.106665500000000
    -0.390793764810337     0.201867148349469     0.872805125311495
1 92
     0.370219853561224    -0.052722678954866     1.224458377592166
     0.164793000000000    -0.386858000000000     0.551664000000000
     0.302562738346962     0.088603063907861     0.364157116635638
1 93
    -0.004109641514524    -0.090230928653909    -0.028154871286108
    -0.027006000000000     0.182102500000000     0.008700500000000
    -0.014192221082163     0.050512466526427     0.046643704388189
1 94
     0.005150187775810     0.184419071558283     0.138349208716569
    -0.018897000000000     0.254318500000000     0.017623500000000
     0.028842537364700     0.040642069230348     0.047076038641268
1 95
    -0.040819022252646     0.180655129724947    -0.116088594342640
     0.016346500000000    -0.011584000000000    -0.031372000000000
     0.010425156151150    -0.144132187575264     0.115935183376236
1 96
     0.024496404565730    -0.171702861434858     0.184485792835080
    -0.044253500000000     0.073269000000000    -0.166185500000000
     0.052261422454044    -0.126976356799135     0.071387714025497
1 97
   -11.673905559925140     2.705109389713333     9.756265259143605
     2.843719499999999    -3.382145000000000    -3.035629999999998
     9.704567294484425    -2.862977042011808   -12.617921881407186
1 98
     1.275166908892898    -0.109120045283581    -0.219726763813211
     0.694510500000000    -0.410882000000000    -0.019287500000000
     0.128426423821539    -0.067279259658037     0.063054397385618
1 99
    -0.138687005527733    -0.027152310684946     0.072078173434652
    -0.140527000000000     0.214010500000000     0.092460500000000
     0.117011291617576    -0.011371167810249    -0.110227917120544
1 100
     0.214251639372036     0.084044392993997    -0.114007482910809
     0.059818000000000     0.125449500000000    -0.027690500000000
    -0.000742038923895     0.042647441240120    -0.000859875843959
1 101
    -0.160613008900407     0.012432232026986     0.091475639850313
     0.283360000000000     0.286801000000000    -0.217720500000000
     0.109657014835752    -0.004422331503245    -0.103619627144451
1 102
     0.142507316854185    -0.030693518826071    -0.051499503694325
    -0.154044500000000     0.097181000000000    -0.004448000000000
    -0.067782841444188    -0.035945887032345     0.000742456054126
1 103
    -0.412016082199872     0.139386403560844     0.145994349063443
     0.382801000000000    -0.328222500000000    -0.366267000000000
    -0.950116455510616     0.145859327249208     1.163062849328774
1 104
    -0.031594438672511    -0.015578260145603     0.204141628951058
    -0.095128500000000    -0.185507500000000     0.084407500000000
     0.250743321037160     0.021832634004569     0.033654226259122
1 105
    -0.011617277279031    -0.051050605272257    -0.027650170016249
     0.042017500000000     0.100994000000000    -0.050597000000000
    -0.192635681240920    -0.064103665273111     0.115664425759134
1 106
    -0.010541852769273     0.005243073575124     0.044679427027004
    -0.020990000000000     0.082509500000000     0.004539500000000
     0.083354284389973     0.000719440128334    -0.016918841317197
1 107
     0.044184580381072     0.015140102298965    -0.076332870079462
    -0.139887000000000     0.095290000000000     0.184764500000000
    -0.098193844837522     0.019640077266937     0.084870934910084
1 108
    -0.021804849648674     0.009106305025380     0.048612306156751
     0.029424500000000     0.062495500000000     0.007186500000000
     0.063635234786698    -0.010277772774424    -0.003683306879289
1 109
     0.167838894843069    -0.269618668966416    -0.192834087470197
    -1.531099500000000     0.029249000000000     0.425130500000000
    -0.268784827951438     0.032032183710961    -0.044499793090823
1 110
    -0.152201255265880     0.453269634491682     0.158541716882920
     1.205763000000000     0.120079000000000    -0.097437000000000
     0.422110838701472     0.096417280715004    -0.415120828514678
1 111
     0.707614775377602     0.681461012417325    -0.554047522801362
     0.447121500000000     0.212946000000000    -0.220799000000000
     0.131254132672183     0.408917213746352    -0.319941452688999
1 112
     0.077657907889196    -0.293824350612783     0.083433620629369
    -0.332716500000000     0.140961500000000     0.091051000000000
     0.953126549230484    -0.396424860378258    -0.806576846949626
1 113
     0.044816272493194     0.010392358364489    -0.035117320709200
    -0.035572000000000     0.151976000000000     0.019990500000000
    -0.045783651758023     0.002048484519642     0.019934515346350
1 114
    -0.038735772789367    -0.005246175524076     0.029385177342997
     0.030720500000000     0.158139000000000    -0.005205500000000
     0.064337792130157    -0.011075006793901    -0.044174259570219
1 115
    -0.300475640991488     0.017197748736279     0.142690901503399
     0.081607000000000    -0.045397000000000    -0.166393500000000
     0.041652046892899    -0.137760130237325     0.204991109951766
1 116
     0.259956125428914     0.048756614015877    -0.154567060559041
    -0.099411000000000    -0.045611500000000     0.148852500000000
    -0.243010783038574    -0.005853452065463     0.380221365838365
1 117
    -0.303040748997465    -0.013611714008291     0.149124985640784
    -0.065514500000000     0.013346000000000     0.135975000000000
     0.062216134386741     0.085563795191156     0.144256354774278
1 118
     0.195303201271541    -0.086107055025496    -0.052845177275417
     0.044388500000000     0.028929000000000    -0.042449000000000
    -0.279438267257600     0.016604515906286     0.320089953372585
1 119
    -0.067298384840528     0.008498252125848     0.038780305397894
     0.012881000000000     0.101392500000000    -0.018524000000000
     0.026146591478344    -0.004053953252275    -0.014896359039882
1 120
     0.049572972281913    -0.006021103799669    -0.026939859901508
    -0.004856500000000     0.097717500000000     0.018963500000000
    -0.055209983476251    -0.020019476131164     0.046249233169436
2 1
    -1.302379902061332    -0.141575137541572     0.221055352588004
    -0.141644500000000     0.694671000000000     0.355792500000000
     0.220908610314444     0.355942425251928     0.363140882137789
2 2
    36.875474025630709    -1.633072300237179    -2.071821716752225
    -1.637203999999999    37.520282500000000     2.057325999999993
    -2.076563565353731     2.059382549999491    37.323315237056754
2 3
    -0.234476262310597     0.064855067163725     0.080363156397326
    -0.046594500000000    -0.236660000000000     0.055378500000000
    -0.014634338238142    -0.066867169348471     0.002249852321477
2 4
     0.160742268376361    -0.077369228981291    -0.051840289826263
     0.122106000000000    -0.978419000000000    -0.129453500000000
    -0.065028370835550     0.198379822571507     0.102215354579985
2 5
    -0.234390215089953    -0.046547685357069    -0.014648970249522
     0.064708000000000    -0.236720000000000    -0.066961000000000
     0.080397856954957     0.055376629681773     0.002286276195518
2 6
     0.160727895765227     0.122063579086259    -0.064845259030201
    -0.077260000000000    -0.978402000000000     0.198313000000000
    -0.051987273263628    -0.129445551858673     0.102183138887482
2 7
    -0.364785762686906     0.113492089323476    -0.618231055088911
     0.113462000000000     0.750068500000000    -0.159262000000000
    -0.618365544625456    -0.159216265604041    -0.502366134274612
2 8
     0.241486931014451    -0.146352013243660     0.516896953318925
    -0.146471500000000     0.415147500000000    -0.004715500000000
     0.516903716339084    -0.004721933569456    -1.064320982190785
2 9
    -0.070401412860985    -0.021901197891076    -0.158669796656358
     0.003259500000000    -0.229531500000000     0.013090500000000
    -0.160492911770288     0.026804378550969    -0.076778470339815
2 10
     0.036688863823890     0.115220617227426     0.063400376358304
    -0.053155500000000    -0.169868500000000     0.048727000000000
     0.151620473509794    -0.104746154524656    -0.138215340643977
2 11
    -0.070350135246890     0.003185929910966    -0.160494802388992
    -0.021977000000000    -0.229604500000000     0.026825000000000
    -0.158775161533076     0.013195801631100    -0.076775220094873
2 12
     0.036647141296430    -0.052972378227949     0.151567511648543
     0.115268500000000    -0.170033500000000    -0.104757000000000
     0.063293588253717     0.048951762615476    -0.138262873165146
2 13
    -0.582446485473120    -0.359213947126779    -0.389343016065010
    -0.684177000000000    -0.002367000000000     0.841022500000000
    -0.096616024182672     0.261745196342652     0.804365844948316
2 14
    -0.143928536954210     1.853042365645746     0.460931630802344
     3.991508500000000    -2.157216500000001     1.408324000000000
     0.826568848330842     0.249408535438553     0.795527383655964
2 15
    -0.582497289195899     0.684143651207261    -0.096665148148049
     0.359172500000000    -0.002449000000000    -0.261778000000000
    -0.389316373743945    -0.840993089675313     0.804270809832045
2 16
    -0.143912062382538    -3.991396487541073     0.826485140423286
    -1.852946500000000    -2.157196000000000    -0.249337000000000
     0.460999363735834    -1.408525416492403     0.795369966648746
2 17
    -0.003456286072954     0.018779973057431    -0.053635863542938
    -0.018805000000000    -0.299416000000000     0.003368500000000
    -0.053498770129764    -0.003445147744861     0.043916030761706
2 18
    -0.014203038475056    -0.066148862545626     0.044904906581505
     0.066177500000000    -0.519431000000000     0.001413500000000
     0.044849663445666    -0.001308406060011    -0.012265398312637
2 19
    -0.355351527669928    -0.030569674904264    -0.114304057439281
    -0.070569500000000    -0.096254500000000    -0.270185000000000
    -0.198847838302291    -0.140555255593740    -0.733140135507773
2 20
     0.295692233084112    -0.097258137373032     0.085639670974373
    -0.164853000000000     0.083247000000000     0.052981000000000
     0.085031861686850     0.114048334318839    -0.209150458435239
2 21
    -0.355327417963163     0.070646028499560    -0.198910227549445
     0.030695500000000    -0.096221000000000     0.140582500000000
    -0.114298342292172     0.270157727474559    -0.733063386525974
2 22
     0.295642897202515     0.164849706031445     0.084995071701251
     0.097304000000000     0.083275500000000    -0.114034000000000
     0.085677895821268    -0.052997332253819    -0.209074145667468
2 23
    -0.057620278309135     0.037838064102754     0.026843586994523
    -0.037706500000000    -0.294354000000000    -0.105546500000000
     0.026843428215365     0.105477931183918    -0.061883134193312
2 24
     0.081940064330985     0.007649037314052    -0.020229236243606
    -0.007741000000000    -0.232711000000000    -0.006297500000000
    -0.020092524766257     0.006159433545045     0.016014282935312
2 25
    -4.344350526767585    -0.240051129982555     2.005148001422748
     0.546365499999999     0.503778500000000    -0.077164500000000
     3.639962247379965     0.387562424223271    -1.599026024793142
2 26
    -3.099777292461334     1.083903986242712    -2.674949202635424