120  
30   

1    
  0.0099999916303774   0.0000000000000000   0.0000129380207543
  -0.3687487200    0.0120651600    0.0159894900
   0.0142487100    0.0005378100   -0.0021792300
  -0.0003769100   -0.0000924800    0.0005617800
   0.0035725900   -0.0015094300   -0.0007596000
  -0.0003789400   -0.0020795200    0.0006872700
   0.0035698200   -0.0004086500    0.0001906600
  -0.0012000400    0.0006000300   -0.0051283700
   0.0048928500   -0.0020007800    0.0062356900
   0.0008579900   -0.0020179000   -0.0005894700
   0.0019345700   -0.0006481100    0.0016279800
   0.0008592600   -0.0003404300   -0.0014698200
   0.0019380600   -0.0009031000    0.0016515400
   0.0001459700   -0.0194686700   -0.0046593100
   0.0045780600    0.0027120600    0.0038690200
   0.0002339300    0.0391258200   -0.0082841000
   0.0046029400   -0.0076829300    0.0009200000
  -0.0010877800   -0.0002091900   -0.0004911100
  -0.0011907600   -0.0010593700    0.0004927200
  -0.0041881500    0.0001049100   -0.0009024500
   0.0023330000   -0.0005576400    0.0011156700
  -0.0041873000   -0.0025163800   -0.0008968400
   0.0023287800   -0.0015798400    0.0019586400
  -0.0020459500   -0.0009482200    0.0001584800
  -0.0006512100   -0.0012514300   -0.0003084400
   0.0307031400   -0.0124210400    0.0268166000
   0.0429298900    0.0008013300   -0.0199481900
   0.0005122800    0.0035779400   -0.0008815500
  -0.0014070000   -0.0047524300    0.0002768400
   0.0004144600   -0.0034117500   -0.0001953500
  -0.0017680300   -0.0001185300    0.0003927400
  -0.0014486800   -0.0014990900   -0.0015493900
  -0.0021176600    0.0056604800    0.0089680500
  -0.0005464000   -0.0012063600   -0.0002049900
  -0.0008582500   -0.0040812700   -0.0008806000
  -0.0008673700   -0.0016794500   -0.0002945200
   0.0001201400   -0.0013655900   -0.0015224100
  -0.0104340100    0.0107450100   -0.0004447200
   0.0053249700   -0.0019645000   -0.0009573900
  -0.0016031900   -0.0195471000    0.0036250100
   0.0083745400   -0.0018165900   -0.0022505700
  -0.0001163400   -0.0020713600    0.0001346800
   0.0009736400   -0.0014036000   -0.0001320500
   0.0016369800    0.0015107700   -0.0054410800
  -0.0020119900   -0.0038282200    0.0076139300
   0.0022864000   -0.0069493900   -0.0021326900
  -0.0008618900    0.0026754700    0.0079940900
   0.0008526700   -0.0019083000   -0.0001211100
  -0.0000665600   -0.0008489900    0.0003514800
  -0.0005358800    0.0107643700   -0.0050800800
  -0.0054760900   -0.0052677200    0.0027039800
  -0.0018672200   -0.0094555200   -0.0034200200
  -0.0000655300    0.0059738300    0.0012025700
   0.0009455200    0.0022055700    0.0006682900
   0.0010407000    0.0019468200    0.0004215300
   0.0010920800    0.0021242200    0.0013404200
   0.0012139400   -0.0009013400    0.0003785700
   0.0007492100    0.0022573600    0.0016177400
   0.0005263500    0.0066549000   -0.0012485600
   0.0011066500    0.0021697500    0.0007300100
   0.0009471900    0.0025895000    0.0010705200
   0.0426620900   -0.0201278800    0.0041307000
  -0.0035755700    0.0010839500   -0.0007938200
   0.0077340800   -0.0019565100    0.0044127300
  -0.0031865300    0.0023773900   -0.0005600000
   0.0009123200    0.0010268000    0.0005347500
  -0.0002153900    0.0007170900    0.0001257000
   0.0018835700   -0.0008763700    0.0022527100
  -0.0014805600    0.0015716700   -0.0019923100
   0.0015939300    0.0024933600    0.0015775100
  -0.0014988200    0.0001597600   -0.0018118000
   0.0007874600    0.0006152000    0.0007102800
  -0.0001677300    0.0009323300   -0.0001623300
   0.1250349800    0.0512961200    0.0353895300
  -0.0128598900    0.0023571300   -0.0025742900
   0.0004878000   -0.0002501400    0.0004118000
  -0.0011059200    0.0016999600   -0.0008031500
   0.0007759300    0.0026646600    0.0006483500
  -0.0018138500   -0.0016713300   -0.0010154900
   0.0018392300    0.0015504700    0.0014331400
  -0.0047862000    0.0006202900   -0.0043375300
   0.0002163800    0.0011398200   -0.0000871200
  -0.0011074600    0.0017941000   -0.0009724700
   0.0003228700    0.0005757900    0.0000872900
  -0.0013084100    0.0000372600   -0.0006678400
   0.0386924200   -0.0179655600    0.0367170800
  -0.0042496700    0.0025885600   -0.0000954700
  -0.0004327600    0.0021678300    0.0000259900
  -0.0014755100    0.0021805200   -0.0004256100
   0.0002099100    0.0041651200    0.0020933700
  -0.0018889600    0.0025165600   -0.0005942700
  -0.0045281200    0.0046346400    0.0057123800
  -0.0047001500    0.0027435900   -0.0128731700
  -0.0009622700    0.0031443900   -0.0003305900
  -0.0010569900    0.0004005100   -0.0019941600
  -0.0005895900    0.0004150100    0.0005438800
  -0.0012444900    0.0039464500   -0.0024621500
   0.1140511300   -0.0267807500   -0.0943798000
  -0.0133194200    0.0004949000    0.0024203200
   0.0008297400   -0.0002940100   -0.0004939600
  -0.0026971400   -0.0014081000    0.0013622600
   0.0010380600   -0.0007008300   -0.0006861200
  -0.0019812900   -0.0002660200    0.0007384000
   0.0035622600   -0.0019895800   -0.0012354700
  -0.0002637900   -0.0004358200   -0.0018089400
  -0.0004396700   -0.0000554500    0.0004993900
  -0.0004548300   -0.0006200300   -0.0002199900
  -0.0010047600   -0.0007284800    0.0009859700
  -0.0003436900   -0.0006653900   -0.0002617800
  -0.0011102800    0.0021422300    0.0017035500
   0.0020766100   -0.0050680800   -0.0018002000
  -0.0065226100   -0.0074066300    0.0053138800
  -0.0002354200    0.0023634100   -0.0010454800
   0.0001333400   -0.0006946600    0.0001205300
   0.0009576900   -0.0005370000   -0.0005200000
   0.0035678100   -0.0007387700   -0.0016547500
  -0.0020405700   -0.0010544100    0.0013137600
   0.0035940900   -0.0004400700   -0.0017164200
  -0.0013865900    0.0002873200    0.0002970900
   0.0012493400   -0.0006748400   -0.0006162400
   0.0000824500   -0.0005283900    0.0000384400

1    
 -0.0099999916303774   0.0000000000000000  -0.0000129380207543
   0.3687064100   -0.0205429700   -0.0244811300
  -0.0117931500   -0.0022844800    0.0022512700
   0.0028362500   -0.0016347300   -0.0004723800
  -0.0011173100   -0.0002140600    0.0008477200
   0.0028342700    0.0003584000   -0.0006069900
  -0.0011159000   -0.0013381700   -0.0001022600
   0.0036430700   -0.0023271300    0.0051820200
  -0.0024188600    0.0002649400   -0.0061419200
   0.0015956900    0.0002838000    0.0006749600
   0.0005223900   -0.0010854400   -0.0015474000
   0.0015938400   -0.0013986100    0.0015579500
   0.0005269500   -0.0008390400   -0.0015603400
  -0.0027112100    0.0175986000    0.0045799000
  -0.0070733600   -0.0044654400   -0.0038970200
  -0.0026323800   -0.0407384900    0.0082661700
  -0.0070570700    0.0059781700   -0.0009924900
  -0.0013706800   -0.0015322000    0.0004066700
  -0.0012612700   -0.0006838600   -0.0005788600
   0.0017278900   -0.0018373000    0.0008049300
  -0.0047791700   -0.0011726700   -0.0011893800
   0.0017277700    0.0007792400    0.0007976500
  -0.0047807200   -0.0001599300   -0.0020385300
  -0.0004076700   -0.0007950800   -0.0002456900
  -0.0018029200   -0.0004919400    0.0002268300
  -0.0313371400    0.0092575900   -0.0267086200
  -0.0438628600   -0.0039896600    0.0201133600
  -0.0013566700   -0.0067578900    0.0007285800
   0.0005744000    0.0015693400   -0.0004389800
  -0.0012706000   -0.0002240200    0.0000516500
   0.0009332200   -0.0035112700   -0.0005227100
   0.0005867100   -0.0017455500    0.0014063700
   0.0012604600   -0.0089101600   -0.0090951700
  -0.0002888300   -0.0019730900    0.0000385000
   0.0000189000    0.0008878000    0.0007123100
   0.0000184500   -0.0019519500    0.0001540100
  -0.0009698900   -0.0022577800    0.0013976100
   0.0114254700   -0.0139387700    0.0005694100
  -0.0044689100   -0.0012295800    0.0011033700
   0.0025251600    0.0159430700   -0.0035090900
  -0.0075127700   -0.0017953400    0.0023761000
   0.0009768800   -0.0011755900   -0.0000116900
  -0.0001168200   -0.0018460100    0.0002572100
  -0.0007977200   -0.0046941900    0.0056132300
   0.0028256500    0.0006337100   -0.0074078000
  -0.0014350800    0.0032964800    0.0022753600
   0.0017053900   -0.0062870400   -0.0078667400
   0.0000044300   -0.0013426300    0.0002464200
   0.0009253300   -0.0024051200   -0.0002273900
   0.0025541800   -0.0062389000    0.0062697500
   0.0074676000    0.0097261300   -0.0015086300
   0.0038572300    0.0139177500    0.0046568900
   0.0020545500   -0.0015348500    0.0000201600
   0.0010293500    0.0022366200    0.0005740400
   0.0009315800    0.0024993700    0.0008157300
   0.0009159300    0.0023534900   -0.0001004200
   0.0007742300    0.0053731800    0.0008160400
   0.0012469600    0.0021802500   -0.0003797300
   0.0014692300   -0.0021676900    0.0024561300
   0.0008668200    0.0022738400    0.0005119900
   0.0010282900    0.0018583600    0.0001601400
  -0.0421688100    0.0226522200   -0.0032204900
   0.0043664400    0.0007282200    0.0015280900
  -0.0069325700    0.0037231900   -0.0036507500
   0.0039603300   -0.0006039200    0.0013031900
  -0.0001140900    0.0007444700    0.0002051800
   0.0010049700    0.0010553900    0.0006071700
  -0.0010874400    0.0026809100   -0.0015066200
   0.0022608900    0.0002362600    0.0027192800
  -0.0008128700   -0.0007061100   -0.0008290300
   0.0022692000    0.0016216800    0.0025550800
   0.0000069900    0.0011554800    0.0000260000
   0.0009565300    0.0008451900    0.0008966800
  -0.1195993700   -0.0454703600   -0.0336235700
   0.0120676600   -0.0005980900    0.0018136400
  -0.0012772400    0.0020667400   -0.0011541400
   0.0003115300    0.0001125600    0.0000586600
  -0.0015209100   -0.0009005500   -0.0013792900
   0.0010406500    0.0034667700    0.0002572100
  -0.0026271300    0.0002180500   -0.0021592000
   0.0039626200    0.0011441900    0.0035658500
  -0.0010044000    0.0006739300   -0.0006516000
   0.0003165800    0.0000225500    0.0002334000
  -0.0010992100    0.0012100700   -0.0008334900
   0.0005309200    0.0017440300   -0.0000787300
  -0.0403742500    0.0225281800   -0.0381259900
   0.0022677100    0.0018518800   -0.0011308800
  -0.0015739900    0.0023064200   -0.0012549700
  -0.0005328600    0.0023017700   -0.0007998100
  -0.0022216200    0.0002437600   -0.0033431700
  -0.0001102900    0.0019408500   -0.0006295800
   0.0024998400   -0.0001724900   -0.0068871400
   0.0027120700    0.0016914300    0.0116254000
  -0.0010448300    0.0013410800   -0.0008924800
  -0.0009532400    0.0040899400    0.0007740400
  -0.0014057000    0.0040243800   -0.0017748900
  -0.0007532100    0.0005091100    0.0012294100
  -0.1191756700    0.0272473100    0.1004188400
   0.0121872200   -0.0016892400   -0.0019725800
  -0.0019409700   -0.0008373500    0.0009447500
   0.0015878700    0.0002738900   -0.0009179100
  -0.0021713600   -0.0004523000    0.0011407100
   0.0008671000   -0.0008808200   -0.0002915700
  -0.0047026400    0.0008019200    0.0017145100
  -0.0008891900   -0.0007468200    0.0022747600
  -0.0006770000   -0.0010781200   -0.0000506200
  -0.0006635100   -0.0005151500    0.0006731600
  -0.0001236100   -0.0004251700   -0.0005384900
  -0.0007781400   -0.0004835300    0.0007103700
   0.0022395400   -0.0032493100   -0.0021542800
  -0.0009564900    0.0039998000    0.0013598900
   0.0076330700    0.0062331600   -0.0057753400
   0.0013424000   -0.0035233300    0.0006023200
   0.0010284800   -0.0004867600   -0.0005813000
   0.0001846400   -0.0006422100    0.0000665600
  -0.0024406200   -0.0003983800    0.0012043700
   0.0031522600   -0.0000794300   -0.0017677400
  -0.0024651100   -0.0007100900    0.0012698100
   0.0025122400   -0.0014343900   -0.0007515300
  -0.0000959500   -0.0005049800    0.0001589800
   0.0010724800   -0.0006493300   -0.0004991600

1    
  0.0000000000000000   0.0100000000000000   0.0000000000000000
   0.0158244800   -0.3702019600   -0.0187541100
   0.0026513400   -0.0078023100   -0.0035084500
  -0.0000074400    0.0089694300    0.0013565800
   0.0016949500    0.0014948900   -0.0005137000
   0.0020012400    0.0089217900   -0.0019450000
   0.0005819900    0.0014976700    0.0007118500
   0.0026856000   -0.0050136100    0.0000819200
   0.0000978900   -0.0083565500    0.0016349900
   0.0017613600    0.0008278300   -0.0004457800
   0.0011948800    0.0014239700   -0.0000881900
   0.0000758500    0.0008324400    0.0010891100
   0.0014480200    0.0014274200   -0.0002234300
  -0.0410728800    0.0205804300   -0.0141481400
   0.0055990200   -0.0008392100   -0.0084260000
   0.0174545200    0.0207329800    0.0024692100
  -0.0048275100   -0.0008631300    0.0025801400
  -0.0018863000    0.0043303200   -0.0000583900
  -0.0010420400    0.0021217800   -0.0000747700
   0.0004160000   -0.0016943600   -0.0005727300
  -0.0005251300    0.0000899200    0.0026438100
  -0.0022027100   -0.0017067300    0.0010965000
  -0.0015354000    0.0000785600   -0.0014513700
  -0.0011510700    0.0014549200    0.0000213300
  -0.0008497200    0.0020706600    0.0010123500
   0.0042684000   -0.0237433900    0.0092761200
  -0.0058518300   -0.0066498600    0.0006903700
   0.0002945800    0.0026596400    0.0007104300
  -0.0018830800    0.0009108200    0.0008164800
  -0.0038143300    0.0018409300   -0.0042290200
   0.0028339500    0.0004676000   -0.0021518900
  -0.0010259100   -0.0061615900   -0.0002543900
   0.0035067200   -0.0213056200   -0.0091781500
  -0.0006866600    0.0003413600   -0.0000253600
  -0.0005065800    0.0022415700   -0.0013036600
   0.0000781800   -0.0001101000    0.0009193700
  -0.0007575600    0.0017742100    0.0064367400
   0.0278551100    0.0207119500    0.0337209900
  -0.0058984000   -0.0021296300    0.0033171500
  -0.0107118400    0.0200413500   -0.0173176600
   0.0040413200   -0.0027501600   -0.0019709000
   0.0009466700    0.0038611700    0.0003157800
   0.0002079600    0.0011138500    0.0002159700
  -0.0002044800   -0.0030992900    0.0003930500
  -0.0001303300   -0.0014996100   -0.0043639600
   0.0010257200   -0.0016721700    0.0005007600
   0.0012170100   -0.0003498400    0.0037193300
   0.0002854700    0.0009711100   -0.0003568600
   0.0005724500    0.0015108900   -0.0009059200
   0.0089860200    0.0090863600    0.0076223900
   0.0023131800    0.0078072000    0.0025846300
  -0.0009067000   -0.0008960500   -0.0017316400
   0.0015686300    0.0013558000   -0.0004300800
   0.0010428700   -0.0014935600    0.0016569200
   0.0003854400   -0.0000183600    0.0009307500
   0.0018042500    0.0046238300   -0.0005280500
  -0.0024435200    0.0089877400   -0.0092106000
   0.0007648600    0.0017667800    0.0009252600
   0.0014642900    0.0006717900    0.0026662000
   0.0007525000    0.0005518800    0.0003700100
   0.0004656900   -0.0015513800   -0.0008472900
  -0.0197933600    0.1596842800    0.0220658000
   0.0003621300    0.0049747800    0.0020632800
   0.0004509600   -0.0096977000    0.0009326100
   0.0005641300   -0.0000699200    0.0003455900
   0.0008159900   -0.0041025100    0.0002207500
   0.0006217000   -0.0012988500    0.0001339200
  -0.0001880900    0.0035753700    0.0005257900
  -0.0003365400    0.0041222500    0.0005425300
   0.0003132300    0.0002315700    0.0001756000
   0.0005830300   -0.0003186200    0.0001420600
   0.0006573900   -0.0008743800    0.0001318800
   0.0004686600   -0.0012281800    0.0002042100
   0.0516597700    0.0693110800    0.0118958000
   0.0017610100    0.0028549000   -0.0000406200
  -0.0012131200   -0.0039039700   -0.0005928100
  -0.0003835900   -0.0014002800   -0.0001740000
   0.0052831800   -0.0085275700    0.0040830600
  -0.0013984000   -0.0000066200    0.0008284300
  -0.0007056000    0.0026668800   -0.0007721300
   0.0016528400    0.0037003400    0.0038618400
  -0.0006210200   -0.0008679600   -0.0002504900
  -0.0006097900   -0.0017637300   -0.0001357100
  -0.0004097100    0.0006918200   -0.0005099100
  -0.0008670100    0.0006038800   -0.0015019500
  -0.0223121900    0.0636946900   -0.0459253900
  -0.0017011800    0.0048524500    0.0003814000
  -0.0001377000   -0.0024279500    0.0002065300
  -0.0008285100    0.0003231100   -0.0003639300
  -0.0026077900   -0.0073182600   -0.0062850000
   0.0001115300    0.0006673500   -0.0015024300
  -0.0004040700    0.0029280800   -0.0016625500
  -0.0026361300    0.0060896600   -0.0061273200
  -0.0007326900    0.0004210500   -0.0007025000
  -0.0008161500   -0.0003001900   -0.0007905400
  -0.0011615100    0.0023332600   -0.0003011400
  -0.0005563600    0.0014936700    0.0010453100
  -0.0287743100    0.0329092200    0.0303700900
  -0.0075060700    0.0035095500    0.0004251900
   0.0008547100   -0.0027122300   -0.0007023800
  -0.0011585500   -0.0018204900    0.0005036000
  -0.0033929900   -0.0034392800    0.0024044800
   0.0009794700   -0.0015453100    0.0002730200
  -0.0044009100    0.0026869200    0.0038919100
   0.0003736700    0.0012621800   -0.0006121400
  -0.0009804000   -0.0015750600    0.0007357900
  -0.0003519300   -0.0013922100    0.0001819200
   0.0008345400   -0.0015278800   -0.0016200500
  -0.0008520400   -0.0011987200    0.0001534700
   0.0158234200   -0.0008453900   -0.0044649400
  -0.0114696300   -0.0017628400    0.0007434000
  -0.0039176100   -0.0026898200    0.0019770500
   0.0038933600   -0.0019712300   -0.0011316200
   0.0009318000   -0.0021107500   -0.0004305900
   0.0002711100   -0.0021727200   -0.0001795900
  -0.0002502400   -0.0001151600    0.0014311600
   0.0015448900   -0.0001115100   -0.0017086400
   0.0012215200   -0.0007057800   -0.0015897400
   0.0001197100   -0.0008601600    0.0001990400
   0.0004493400   -0.0016034300   -0.0000472100
   0.0006251400   -0.0015660600   -0.0004221600

1    
  0.0000000000000000  -0.0100000000000000   0.0000000000000000
  -0.0169196000    0.3802036900    0.0223924100
  -0.0001815500    0.0060911100    0.0036074000
   0.0024346800   -0.0105989500   -0.0012324900
   0.0007630600   -0.0032383100    0.0005938700
   0.0004560400   -0.0106462500    0.0020212600
   0.0018761500   -0.0032367300   -0.0006273700
  -0.0002438300    0.0032893400   -0.0000123900
   0.0023671300    0.0066448200   -0.0015502500
   0.0006982500   -0.0025695400    0.0005287600
   0.0012600700   -0.0031666600    0.0001736200
   0.0023812200   -0.0025682300   -0.0010060300
   0.0010084800   -0.0031646700    0.0003130700
   0.0387572900   -0.0225639000    0.0140183400
  -0.0080845200   -0.0008865500    0.0083944500
  -0.0196044100   -0.0224109400   -0.0025175300
   0.0023559400   -0.0009121100   -0.0026554200
  -0.0005627500   -0.0060583000   -0.0000301200
  -0.0014181400   -0.0038665400   -0.0000074000
  -0.0028810600   -0.0000294200    0.0004868900
  -0.0019365200   -0.0018351700   -0.0027598900
  -0.0002566300   -0.0000412200   -0.0011841800
  -0.0009214900   -0.0018458600    0.0013602800
  -0.0013058900   -0.0031993000   -0.0001046200
  -0.0016038500   -0.0038164200   -0.0010985800
  -0.0051713300    0.0205888900   -0.0094396300
   0.0050754800    0.0034257100   -0.0008529200
  -0.0011188900   -0.0058480900   -0.0008592400
   0.0010280200   -0.0041045900   -0.0009711200
   0.0029697000   -0.0054717700    0.0040930500
  -0.0036868000   -0.0040905800    0.0020250500
   0.0001672300    0.0029258400    0.0001304500
  -0.0043543800    0.0181619200    0.0090940900
  -0.0001494700   -0.0035329000   -0.0001372000
  -0.0003296100   -0.0054331500    0.0011178700
  -0.0009277800   -0.0035155500   -0.0010551800
  -0.0000874300   -0.0054000100   -0.0065683600
  -0.0271020300   -0.0241552600   -0.0337485800
   0.0067578000   -0.0010490000   -0.0031663500
   0.0113619300   -0.0235471400    0.0171670300
  -0.0031944300   -0.0008850900    0.0021070100
  -0.0000938400   -0.0070935300   -0.0001921600
   0.0006528200   -0.0043641400   -0.0000927000
   0.0010502800   -0.0000735700   -0.0002410900
   0.0009517300   -0.0016915700    0.0045660100
  -0.0001796500   -0.0019864100   -0.0003623900
  -0.0003705200   -0.0032963800   -0.0035807500
   0.0005715100   -0.0042207400    0.0004828600
   0.0002843800   -0.0047628700    0.0010315000
  -0.0070362400   -0.0046174500   -0.0064511700
  -0.0003210400   -0.0033688900   -0.0013654200
   0.0028843900    0.0053647200    0.0029598000
   0.0004364300    0.0031027400    0.0016604200
   0.0009289200    0.0059255100   -0.0004162400
   0.0015890600    0.0044602500    0.0003047900
   0.0002038800   -0.0001489800    0.0017481900
   0.0044751200   -0.0045017100    0.0104992100
   0.0012349300    0.0026878200    0.0003082200
   0.0005448600    0.0038109900   -0.0014291500
   0.0012198100    0.0038884800    0.0008704900
   0.0015092400    0.0059857200    0.0020865500
   0.0223630100   -0.1689851600   -0.0233913100
   0.0004391700   -0.0031759700   -0.0013258300
   0.0003192600    0.0113933600   -0.0001620600
   0.0002098900    0.0018657600    0.0003980500
  -0.0000209600    0.0058683300    0.0005158500
   0.0001705000    0.0030670600    0.0006004600
   0.0009844300   -0.0017772800    0.0002172000
   0.0011268500   -0.0023249600    0.0001905200
   0.0004657700    0.0015639000    0.0005708800
   0.0001896800    0.0021128400    0.0006023200
   0.0001373300    0.0026430200    0.0006036100
   0.0003256000    0.0030012000    0.0005311600
  -0.0507946100   -0.0672519600   -0.0120744100
  -0.0026070800   -0.0010697200   -0.0007127900
   0.0004084000    0.0056926700   -0.0001575500
  -0.0004030900    0.0032144200   -0.0005648300
  -0.0060438500    0.0102995200   -0.0048049000
   0.0006222700    0.0017891600   -0.0015826700
  -0.0000819500   -0.0008941900    0.0000414500
  -0.0024659100   -0.0019334600   -0.0046439800
  -0.0001665800    0.0026796000   -0.0004860500
  -0.0001810100    0.0035787000   -0.0006005000
  -0.0003698100    0.0010898200   -0.0002399800
   0.0000919700    0.0011847200    0.0007569500
   0.0199542400   -0.0593656600    0.0434957000
  -0.0002773900   -0.0004086200   -0.0016286600
  -0.0018594000    0.0068791800   -0.0014217500
  -0.0011802600    0.0041607400   -0.0008676900
   0.0005863900    0.0117136000    0.0050343500
  -0.0021074500    0.0037682900    0.0002777500
  -0.0016000900    0.0015397600    0.0004707600
   0.0006597300   -0.0016475000    0.0049059600
  -0.0012728100    0.0040631000   -0.0005284900
  -0.0011940900    0.0047861800   -0.0004380700
  -0.0008345800    0.0021015800   -0.0009285800
  -0.0014414300    0.0029590500   -0.0022784000
   0.0281000800   -0.0347336800   -0.0303425100
   0.0063841400   -0.0047080900    0.0000394400
  -0.0019558300    0.0015679800    0.0011468300
   0.0000378100    0.0006885000   -0.0000502100
   0.0022742100    0.0022967400   -0.0019499300
  -0.0021014200    0.0003983100    0.0001840600
   0.0032551100   -0.0038775300   -0.0034334300
  -0.0015289000   -0.0024479700    0.0010760100
  -0.0001400500    0.0004448200   -0.0002761500
  -0.0007717300    0.0002579800    0.0002727100
  -0.0019632000    0.0003779200    0.0020752400
  -0.0002635500    0.0000511900    0.0002972000
  -0.0147985700   -0.0002604100    0.0040376700
   0.0126456300    0.0006387400   -0.0012053400
   0.0050248200    0.0015691000   -0.0024389300
  -0.0027609700    0.0008480000    0.0006894000
   0.0002203600    0.0009287700   -0.0000307800
   0.0008855200    0.0009900600   -0.0002837000
   0.0013819000   -0.0010231000   -0.0018967100
  -0.0004433300   -0.0010237400    0.0012684100
  -0.0000887700   -0.0004388600    0.0011297600
   0.0010074800   -0.0002815800   -0.0006499400
   0.0007069600    0.0004244200   -0.0004176900
   0.0005280100    0.0003882900   -0.0000428900

1    
 -0.0045046335095062   0.0000000000000000   0.0089279492015263
   0.1927742900   -0.0292782600   -0.3459576300
  -0.0066188500   -0.0046851600   -0.0021986900
   0.0025339000   -0.0029862200   -0.0011070500
   0.0003005600    0.0000250400    0.0003862200
   0.0024192800    0.0008435800   -0.0011656100
  -0.0005462700   -0.0015747600   -0.0000406900
  -0.0022945400   -0.0014820000    0.0118497900
   0.0051111900    0.0010670600    0.0017433000
   0.0000371900    0.0005903400    0.0015634300
   0.0023455000   -0.0012038800    0.0000100900
   0.0008267900   -0.0015470100    0.0019616500
   0.0023294400   -0.0009747000    0.0000037000
  -0.0092713500    0.0052546000   -0.0050448800
  -0.0029864700   -0.0048253800   -0.0089957700
  -0.0060144700   -0.0062787000   -0.0033903100
  -0.0003758900    0.0097199300   -0.0076537200
  -0.0016927600   -0.0011572700    0.0002708600
  -0.0007643900   -0.0007554500   -0.0006774300
  -0.0006562300   -0.0023270600    0.0022164600
  -0.0010574600    0.0002473500    0.0059834200
  -0.0006623800    0.0003540800    0.0022076600
  -0.0018096200   -0.0029632800    0.0056089900
  -0.0006775800   -0.0008913100   -0.0002776500
  -0.0017278400   -0.0016434600    0.0006330800
   0.0010486600    0.0030696500   -0.0030760300
  -0.0526338500   -0.0060915200    0.0233497800
  -0.0012383700   -0.0021160600    0.0001635900
   0.0010038700    0.0015683500   -0.0009170200
  -0.0017972000   -0.0019944000   -0.0011885500
   0.0010519500   -0.0038708300   -0.0007429500
   0.0014740400   -0.0019520200   -0.0001962200
  -0.0004279600    0.0032600900    0.0319406400
   0.0002865800   -0.0011249200   -0.0002256900
  -0.0019113300   -0.0054401300   -0.0000403700
   0.0002324700   -0.0022134800    0.0000851600
  -0.0012729200   -0.0010869300    0.0009890700
   0.0096933000    0.0087109200    0.0012512900
  -0.0035514200   -0.0021522700    0.0002053800
   0.0100533500   -0.0261764400   -0.0096713200
  -0.0021197000   -0.0010545100    0.0002000700
   0.0012054100   -0.0021837900   -0.0002361400
  -0.0002366000   -0.0016141300    0.0001991800
  -0.0019551300   -0.0049756500    0.0083115400
   0.0039613800   -0.0026490100    0.0004014700
  -0.0039091500    0.0046210300    0.0038811900
   0.0041692100   -0.0014153700   -0.0010132400
  -0.0002672500   -0.0015735000    0.0004071800
   0.0009766700   -0.0019741900   -0.0001914400
  -0.0000320400    0.0032073200    0.0032932100
   0.0097741300    0.0129765700   -0.0018495000
   0.0019913000    0.0046508900    0.0015992700
   0.0020453500   -0.0024904300    0.0010103300
   0.0011904300    0.0021486900    0.0009539800
   0.0008900100    0.0025913800    0.0007888100
   0.0010227600    0.0024067400   -0.0000483700
  -0.0002726800   -0.0031661100   -0.0046510500
   0.0008461300    0.0017428500    0.0001984800
   0.0010055800    0.0090025000   -0.0032955100
   0.0008938300    0.0023473100    0.0006022200
   0.0010286000    0.0022068700    0.0002823500
  -0.0158608600    0.0275742900    0.0305818200
   0.0028177900    0.0023090300    0.0026326900
   0.0002638300    0.0058051300    0.0051501700
   0.0009199600   -0.0012739400    0.0014627300
   0.0002909100    0.0008559200    0.0006161200
   0.0007514400    0.0011792100    0.0005706200
   0.0007000600    0.0015624600   -0.0029594100
  -0.0008919000    0.0000853400   -0.0009153200
   0.0005509600   -0.0010801500   -0.0010966300
  -0.0006911200    0.0013336700   -0.0005856900
   0.0002717900    0.0012883500    0.0000181100
   0.0001087100    0.0012086600    0.0002595900
  -0.0235389500   -0.0112938400    0.0180626300
   0.0143661200   -0.0026240400    0.0051195100
  -0.0000691400    0.0018968300   -0.0002247100
  -0.0003663400    0.0000898600    0.0001116700
   0.0018685700   -0.0017875600    0.0009404200
   0.0003456500    0.0034516000    0.0009649000
  -0.0004831700    0.0008469400   -0.0028155600
  -0.0023668200    0.0015824200   -0.0058568300
  -0.0004956300    0.0005359200   -0.0005610300
  -0.0007031900    0.0023511800   -0.0010751200
  -0.0005490000    0.0017314800   -0.0010010200
  -0.0009338300   -0.0001009400   -0.0014489100
   0.0128043000   -0.0273233800    0.1026314400
   0.0009438300    0.0021422600    0.0011806500
  -0.0011504200    0.0033778300   -0.0001938100
  -0.0007699800    0.0018858200   -0.0005637600
  -0.0010638800    0.0006417200   -0.0013662800
  -0.0003303300    0.0023227600   -0.0005131500
   0.0040692300   -0.0006663100   -0.0112096600
  -0.0020270100    0.0011910600    0.0016548200
  -0.0008948600    0.0013828600   -0.0011587900
  -0.0012395700    0.0027151000   -0.0004057600
  -0.0012751200    0.0043254000   -0.0021734100
  -0.0013554800    0.0025849600   -0.0004170700
  -0.1449737600    0.0387661600    0.1616504100
   0.0040425100   -0.0004868000   -0.0013269400
  -0.0022312300   -0.0005877200    0.0015373700
   0.0004209100   -0.0005683100   -0.0002848800
  -0.0022665400   -0.0004789600    0.0015666700
   0.0006898700   -0.0003911600   -0.0000138700
   0.0060461700   -0.0012652200   -0.0094654200
  -0.0029598600   -0.0008567900    0.0008497000
   0.0011119600   -0.0002243900   -0.0009328800
  -0.0013543500   -0.0005518200    0.0005784400
   0.0005133300   -0.0006820900   -0.0008780900
  -0.0012288700   -0.0004429100    0.0004759900
   0.0037151400   -0.0020598500   -0.0007054700
  -0.0039078400    0.0006097500    0.0042015300
   0.0025786800   -0.0011573700    0.0001284600
  -0.0076024400    0.0016386300    0.0073534100
   0.0011855100   -0.0005622600   -0.0005634400
  -0.0001763800   -0.0005141700    0.0002987300
  -0.0011704400    0.0007458300   -0.0014194000
   0.0039015200   -0.0002942100   -0.0043167600
  -0.0013629200   -0.0014031800   -0.0008416700
   0.0039340700   -0.0011096600   -0.0033208600
   0.0000425600   -0.0005166500    0.0000780400
   0.0012944300   -0.0004383200   -0.0007650600

1    
  0.0045046335095062   0.0000000000000000  -0.0089279492015263
  -0.1765256100    0.0222066500    0.3391492900
   0.0090591600    0.0029460000    0.0022939700
  -0.0000754100    0.0012530700    0.0011851400
   0.0021517100   -0.0017532300   -0.0002976200
   0.0000429600   -0.0025674900    0.0012431700
   0.0030009900   -0.0001666000    0.0001321100
   0.0047596200   -0.0002477900   -0.0118114800
  -0.0026438300   -0.0027983700   -0.0016570900
   0.0024139700   -0.0023180500   -0.0014757200
   0.0001140200   -0.0005279500    0.0000686400
   0.0016267900   -0.0001956900   -0.0018726700
   0.0001281700   -0.0007677800    0.0000787500
   0.0067844700   -0.0069865400    0.0050073200
   0.0005357800    0.0030845700    0.0088746000
   0.0035136300    0.0045303700    0.0033657100
  -0.0020796100   -0.0114603900    0.0075781400