phonopy:
  version: "2.21.2"
  frequency_unit_conversion_factor: 15.633302
  symmetry_tolerance: 1.00000e-05
  configuration:
    force_constants: "WRITE"
    dim: "2 0 0 0 3 0 0 0 2"
    full_force_constants: ".TRUE."

physical_unit:
  atomic_mass: "AMU"
  length: "angstrom"
  force_constants: "eV/angstrom^2"

space_group:
  type: "P2_1"
  number: 4
  Hall_symbol: "P 2yb"

supercell_matrix:
- [   2,   0,   0 ]
- [   0,   3,   0 ]
- [   0,   0,   2 ]

primitive_cell:
  lattice:
  - [     5.371473980000000,     0.000000000000000,     0.006949630000000 ] # a
  - [     0.000000000000000,     4.986380790000000,     0.000000000000000 ] # b
  - [    -2.427886470000000,     0.000000000000000,     4.811944640000000 ] # c
  points:
  - symbol: Si # 1
    coordinates: [  0.332683400000000,  0.685309860000000,  0.477781970000000 ]
    mass: 28.085500
  - symbol: Si # 2
    coordinates: [  0.667316600000000,  0.185309860000000,  0.522218030000000 ]
    mass: 28.085500
  - symbol: Ge # 3
    coordinates: [  0.976114760000000,  0.683816420000000,  0.823264730000000 ]
    mass: 72.640000
  - symbol: Ge # 4
    coordinates: [  0.023885240000000,  0.183816420000000,  0.176735270000000 ]
    mass: 72.640000
  - symbol: N  # 5
    coordinates: [  0.907452980000000,  0.327159540000000,  0.830434000000000 ]
    mass: 14.006700
  - symbol: N  # 6
    coordinates: [  0.349245080000000,  0.346180590000000,  0.420007960000000 ]
    mass: 14.006700
  - symbol: N  # 7
    coordinates: [  0.650754920000000,  0.846180590000000,  0.579992040000000 ]
    mass: 14.006700
  - symbol: N  # 8
    coordinates: [  0.092547020000000,  0.827159540000000,  0.169566000000000 ]
    mass: 14.006700
  - symbol: O  # 9
    coordinates: [  0.236788650000000,  0.753535280000000,  0.718950590000000 ]
    mass: 15.999400
  - symbol: O  # 10
    coordinates: [  0.763211350000000,  0.253535280000000,  0.281049410000000 ]
    mass: 15.999400
  reciprocal_lattice: # without 2pi
  - [     0.186047188513778,     0.000000000000000,     0.093870874577256 ] # a*
  - [     0.000000000000000,     0.200546256315896,     0.000000000000000 ] # b*
  - [    -0.000268697838284,     0.000000000000000,     0.207680617072501 ] # c*

unit_cell:
  lattice:
  - [     5.371473980000000,     0.000000000000000,     0.006949630000000 ] # a
  - [     0.000000000000000,     4.986380790000000,     0.000000000000000 ] # b
  - [    -2.427886470000000,     0.000000000000000,     4.811944640000000 ] # c
  points:
  - symbol: Si # 1
    coordinates: [  0.332683400000000,  0.685309860000000,  0.477781970000000 ]
    mass: 28.085500
    reduced_to: 1
  - symbol: Si # 2
    coordinates: [  0.667316600000000,  0.185309860000000,  0.522218030000000 ]
    mass: 28.085500
    reduced_to: 2
  - symbol: Ge # 3
    coordinates: [  0.976114760000000,  0.683816420000000,  0.823264730000000 ]
    mass: 72.640000
    reduced_to: 3
  - symbol: Ge # 4
    coordinates: [  0.023885240000000,  0.183816420000000,  0.176735270000000 ]
    mass: 72.640000
    reduced_to: 4
  - symbol: N  # 5
    coordinates: [  0.907452980000000,  0.327159540000000,  0.830434000000000 ]
    mass: 14.006700
    reduced_to: 5
  - symbol: N  # 6
    coordinates: [  0.349245080000000,  0.346180590000000,  0.420007960000000 ]
    mass: 14.006700
    reduced_to: 6
  - symbol: N  # 7
    coordinates: [  0.650754920000000,  0.846180590000000,  0.579992040000000 ]
    mass: 14.006700
    reduced_to: 7
  - symbol: N  # 8
    coordinates: [  0.092547020000000,  0.827159540000000,  0.169566000000000 ]
    mass: 14.006700
    reduced_to: 8
  - symbol: O  # 9
    coordinates: [  0.236788650000000,  0.753535280000000,  0.718950590000000 ]
    mass: 15.999400
    reduced_to: 9
  - symbol: O  # 10
    coordinates: [  0.763211350000000,  0.253535280000000,  0.281049410000000 ]
    mass: 15.999400
    reduced_to: 10

supercell:
  lattice:
  - [    10.742947960000000,     0.000000000000000,     0.013899260000000 ] # a
  - [     0.000000000000000,    14.959142370000000,     0.000000000000000 ] # b
  - [    -4.855772940000000,     0.000000000000000,     9.623889280000000 ] # c
  points:
  - symbol: Si # 1
    coordinates: [  0.166341700000000,  0.228436620000000,  0.238890985000000 ]
    mass: 28.085500
    reduced_to: 1
  - symbol: Si # 2
    coordinates: [  0.666341700000000,  0.228436620000000,  0.238890985000000 ]
    mass: 28.085500
    reduced_to: 1
  - symbol: Si # 3
    coordinates: [  0.166341700000000,  0.561769953333333,  0.238890985000000 ]
    mass: 28.085500
    reduced_to: 1
  - symbol: Si # 4
    coordinates: [  0.666341700000000,  0.561769953333333,  0.238890985000000 ]
    mass: 28.085500
    reduced_to: 1
  - symbol: Si # 5
    coordinates: [  0.166341700000000,  0.895103286666667,  0.238890985000000 ]
    mass: 28.085500
    reduced_to: 1
  - symbol: Si # 6
    coordinates: [  0.666341700000000,  0.895103286666667,  0.238890985000000 ]
    mass: 28.085500
    reduced_to: 1
  - symbol: Si # 7
    coordinates: [  0.166341700000000,  0.228436620000000,  0.738890985000000 ]
    mass: 28.085500
    reduced_to: 1
  - symbol: Si # 8
    coordinates: [  0.666341700000000,  0.228436620000000,  0.738890985000000 ]
    mass: 28.085500
    reduced_to: 1
  - symbol: Si # 9
    coordinates: [  0.166341700000000,  0.561769953333333,  0.738890985000000 ]
    mass: 28.085500
    reduced_to: 1
  - symbol: Si # 10
    coordinates: [  0.666341700000000,  0.561769953333333,  0.738890985000000 ]
    mass: 28.085500
    reduced_to: 1
  - symbol: Si # 11
    coordinates: [  0.166341700000000,  0.895103286666667,  0.738890985000000 ]
    mass: 28.085500
    reduced_to: 1
  - symbol: Si # 12
    coordinates: [  0.666341700000000,  0.895103286666667,  0.738890985000000 ]
    mass: 28.085500
    reduced_to: 1
  - symbol: Si # 13
    coordinates: [  0.333658300000000,  0.061769953333333,  0.261109015000000 ]
    mass: 28.085500
    reduced_to: 13
  - symbol: Si # 14
    coordinates: [  0.833658300000000,  0.061769953333333,  0.261109015000000 ]
    mass: 28.085500
    reduced_to: 13
  - symbol: Si # 15
    coordinates: [  0.333658300000000,  0.395103286666667,  0.261109015000000 ]
    mass: 28.085500
    reduced_to: 13
  - symbol: Si # 16
    coordinates: [  0.833658300000000,  0.395103286666667,  0.261109015000000 ]
    mass: 28.085500
    reduced_to: 13
  - symbol: Si # 17
    coordinates: [  0.333658300000000,  0.728436620000000,  0.261109015000000 ]
    mass: 28.085500
    reduced_to: 13
  - symbol: Si # 18
    coordinates: [  0.833658300000000,  0.728436620000000,  0.261109015000000 ]
    mass: 28.085500
    reduced_to: 13
  - symbol: Si # 19
    coordinates: [  0.333658300000000,  0.061769953333333,  0.761109015000000 ]
    mass: 28.085500
    reduced_to: 13
  - symbol: Si # 20
    coordinates: [  0.833658300000000,  0.061769953333333,  0.761109015000000 ]
    mass: 28.085500
    reduced_to: 13
  - symbol: Si # 21
    coordinates: [  0.333658300000000,  0.395103286666667,  0.761109015000000 ]
    mass: 28.085500
    reduced_to: 13
  - symbol: Si # 22
    coordinates: [  0.833658300000000,  0.395103286666667,  0.761109015000000 ]
    mass: 28.085500
    reduced_to: 13
  - symbol: Si # 23
    coordinates: [  0.333658300000000,  0.728436620000000,  0.761109015000000 ]
    mass: 28.085500
    reduced_to: 13
  - symbol: Si # 24
    coordinates: [  0.833658300000000,  0.728436620000000,  0.761109015000000 ]
    mass: 28.085500
    reduced_to: 13
  - symbol: Ge # 25
    coordinates: [  0.488057380000000,  0.227938806666667,  0.411632365000000 ]
    mass: 72.640000
    reduced_to: 25
  - symbol: Ge # 26
    coordinates: [  0.988057380000000,  0.227938806666667,  0.411632365000000 ]
    mass: 72.640000
    reduced_to: 25
  - symbol: Ge # 27
    coordinates: [  0.488057380000000,  0.561272140000000,  0.411632365000000 ]
    mass: 72.640000
    reduced_to: 25
  - symbol: Ge # 28
    coordinates: [  0.988057380000000,  0.561272140000000,  0.411632365000000 ]
    mass: 72.640000
    reduced_to: 25
  - symbol: Ge # 29
    coordinates: [  0.488057380000000,  0.894605473333333,  0.411632365000000 ]
    mass: 72.640000
    reduced_to: 25
  - symbol: Ge # 30
    coordinates: [  0.988057380000000,  0.894605473333333,  0.411632365000000 ]
    mass: 72.640000
    reduced_to: 25
  - symbol: Ge # 31
    coordinates: [  0.488057380000000,  0.227938806666667,  0.911632365000000 ]
    mass: 72.640000
    reduced_to: 25
  - symbol: Ge # 32
    coordinates: [  0.988057380000000,  0.227938806666667,  0.911632365000000 ]
    mass: 72.640000
    reduced_to: 25
  - symbol: Ge # 33
    coordinates: [  0.488057380000000,  0.561272140000000,  0.911632365000000 ]
    mass: 72.640000
    reduced_to: 25
  - symbol: Ge # 34
    coordinates: [  0.988057380000000,  0.561272140000000,  0.911632365000000 ]
    mass: 72.640000
    reduced_to: 25
  - symbol: Ge # 35
    coordinates: [  0.488057380000000,  0.894605473333333,  0.911632365000000 ]
    mass: 72.640000
    reduced_to: 25
  - symbol: Ge # 36
    coordinates: [  0.988057380000000,  0.894605473333333,  0.911632365000000 ]
    mass: 72.640000
    reduced_to: 25
  - symbol: Ge # 37
    coordinates: [  0.011942620000000,  0.061272140000000,  0.088367635000000 ]
    mass: 72.640000
    reduced_to: 37
  - symbol: Ge # 38
    coordinates: [  0.511942620000000,  0.061272140000000,  0.088367635000000 ]
    mass: 72.640000
    reduced_to: 37
  - symbol: Ge # 39
    coordinates: [  0.011942620000000,  0.394605473333333,  0.088367635000000 ]
    mass: 72.640000
    reduced_to: 37
  - symbol: Ge # 40
    coordinates: [  0.511942620000000,  0.394605473333333,  0.088367635000000 ]
    mass: 72.640000
    reduced_to: 37
  - symbol: Ge # 41
    coordinates: [  0.011942620000000,  0.727938806666667,  0.088367635000000 ]
    mass: 72.640000
    reduced_to: 37
  - symbol: Ge # 42
    coordinates: [  0.511942620000000,  0.727938806666667,  0.088367635000000 ]
    mass: 72.640000
    reduced_to: 37
  - symbol: Ge # 43
    coordinates: [  0.011942620000000,  0.061272140000000,  0.588367635000000 ]
    mass: 72.640000
    reduced_to: 37
  - symbol: Ge # 44
    coordinates: [  0.511942620000000,  0.061272140000000,  0.588367635000000 ]
    mass: 72.640000
    reduced_to: 37
  - symbol: Ge # 45
    coordinates: [  0.011942620000000,  0.394605473333333,  0.588367635000000 ]
    mass: 72.640000
    reduced_to: 37
  - symbol: Ge # 46
    coordinates: [  0.511942620000000,  0.394605473333333,  0.588367635000000 ]
    mass: 72.640000
    reduced_to: 37
  - symbol: Ge # 47
    coordinates: [  0.011942620000000,  0.727938806666667,  0.588367635000000 ]
    mass: 72.640000
    reduced_to: 37
  - symbol: Ge # 48
    coordinates: [  0.511942620000000,  0.727938806666667,  0.588367635000000 ]
    mass: 72.640000
    reduced_to: 37
  - symbol: N  # 49
    coordinates: [  0.453726490000000,  0.109053180000000,  0.415217000000000 ]
    mass: 14.006700
    reduced_to: 49
  - symbol: N  # 50
    coordinates: [  0.953726490000000,  0.109053180000000,  0.415217000000000 ]
    mass: 14.006700
    reduced_to: 49
  - symbol: N  # 51
    coordinates: [  0.453726490000000,  0.442386513333333,  0.415217000000000 ]
    mass: 14.006700
    reduced_to: 49
  - symbol: N  # 52
    coordinates: [  0.953726490000000,  0.442386513333333,  0.415217000000000 ]
    mass: 14.006700
    reduced_to: 49
  - symbol: N  # 53
    coordinates: [  0.453726490000000,  0.775719846666667,  0.415217000000000 ]
    mass: 14.006700
    reduced_to: 49
  - symbol: N  # 54
    coordinates: [  0.953726490000000,  0.775719846666667,  0.415217000000000 ]
    mass: 14.006700
    reduced_to: 49
  - symbol: N  # 55
    coordinates: [  0.453726490000000,  0.109053180000000,  0.915217000000000 ]
    mass: 14.006700
    reduced_to: 49
  - symbol: N  # 56
    coordinates: [  0.953726490000000,  0.109053180000000,  0.915217000000000 ]
    mass: 14.006700
    reduced_to: 49
  - symbol: N  # 57
    coordinates: [  0.453726490000000,  0.442386513333333,  0.915217000000000 ]
    mass: 14.006700
    reduced_to: 49
  - symbol: N  # 58
    coordinates: [  0.953726490000000,  0.442386513333333,  0.915217000000000 ]
    mass: 14.006700
    reduced_to: 49
  - symbol: N  # 59
    coordinates: [  0.453726490000000,  0.775719846666667,  0.915217000000000 ]
    mass: 14.006700
    reduced_to: 49
  - symbol: N  # 60
    coordinates: [  0.953726490000000,  0.775719846666667,  0.915217000000000 ]
    mass: 14.006700
    reduced_to: 49
  - symbol: N  # 61
    coordinates: [  0.174622540000000,  0.115393530000000,  0.210003980000000 ]
    mass: 14.006700
    reduced_to: 61
  - symbol: N  # 62
    coordinates: [  0.674622540000000,  0.115393530000000,  0.210003980000000 ]
    mass: 14.006700
    reduced_to: 61
  - symbol: N  # 63
    coordinates: [  0.174622540000000,  0.448726863333333,  0.210003980000000 ]
    mass: 14.006700
    reduced_to: 61
  - symbol: N  # 64
    coordinates: [  0.674622540000000,  0.448726863333333,  0.210003980000000 ]
    mass: 14.006700
    reduced_to: 61
  - symbol: N  # 65
    coordinates: [  0.174622540000000,  0.782060196666667,  0.210003980000000 ]
    mass: 14.006700
    reduced_to: 61
  - symbol: N  # 66
    coordinates: [  0.674622540000000,  0.782060196666667,  0.210003980000000 ]
    mass: 14.006700
    reduced_to: 61
  - symbol: N  # 67
    coordinates: [  0.174622540000000,  0.115393530000000,  0.710003980000000 ]
    mass: 14.006700
    reduced_to: 61
  - symbol: N  # 68
    coordinates: [  0.674622540000000,  0.115393530000000,  0.710003980000000 ]
    mass: 14.006700
    reduced_to: 61
  - symbol: N  # 69
    coordinates: [  0.174622540000000,  0.448726863333333,  0.710003980000000 ]
    mass: 14.006700
    reduced_to: 61
  - symbol: N  # 70
    coordinates: [  0.674622540000000,  0.448726863333333,  0.710003980000000 ]
    mass: 14.006700
    reduced_to: 61
  - symbol: N  # 71
    coordinates: [  0.174622540000000,  0.782060196666667,  0.710003980000000 ]
    mass: 14.006700
    reduced_to: 61
  - symbol: N  # 72
    coordinates: [  0.674622540000000,  0.782060196666667,  0.710003980000000 ]
    mass: 14.006700
    reduced_to: 61
  - symbol: N  # 73
    coordinates: [  0.325377460000000,  0.282060196666667,  0.289996020000000 ]
    mass: 14.006700
    reduced_to: 73
  - symbol: N  # 74
    coordinates: [  0.825377460000000,  0.282060196666667,  0.289996020000000 ]
    mass: 14.006700
    reduced_to: 73
  - symbol: N  # 75
    coordinates: [  0.325377460000000,  0.615393530000000,  0.289996020000000 ]
    mass: 14.006700
    reduced_to: 73
  - symbol: N  # 76
    coordinates: [  0.825377460000000,  0.615393530000000,  0.289996020000000 ]
    mass: 14.006700
    reduced_to: 73
  - symbol: N  # 77
    coordinates: [  0.325377460000000,  0.948726863333333,  0.289996020000000 ]
    mass: 14.006700
    reduced_to: 73
  - symbol: N  # 78
    coordinates: [  0.825377460000000,  0.948726863333333,  0.289996020000000 ]
    mass: 14.006700
    reduced_to: 73
  - symbol: N  # 79
    coordinates: [  0.325377460000000,  0.282060196666667,  0.789996020000000 ]
    mass: 14.006700
    reduced_to: 73
  - symbol: N  # 80
    coordinates: [  0.825377460000000,  0.282060196666667,  0.789996020000000 ]
    mass: 14.006700
    reduced_to: 73
  - symbol: N  # 81
    coordinates: [  0.325377460000000,  0.615393530000000,  0.789996020000000 ]
    mass: 14.006700
    reduced_to: 73
  - symbol: N  # 82
    coordinates: [  0.825377460000000,  0.615393530000000,  0.789996020000000 ]
    mass: 14.006700
    reduced_to: 73
  - symbol: N  # 83
    coordinates: [  0.325377460000000,  0.948726863333333,  0.789996020000000 ]
    mass: 14.006700
    reduced_to: 73
  - symbol: N  # 84
    coordinates: [  0.825377460000000,  0.948726863333333,  0.789996020000000 ]
    mass: 14.006700
    reduced_to: 73
  - symbol: N  # 85
    coordinates: [  0.046273510000000,  0.275719846666667,  0.084783000000000 ]
    mass: 14.006700
    reduced_to: 85
  - symbol: N  # 86
    coordinates: [  0.546273510000000,  0.275719846666667,  0.084783000000000 ]
    mass: 14.006700
    reduced_to: 85
  - symbol: N  # 87
    coordinates: [  0.046273510000000,  0.609053180000000,  0.084783000000000 ]
    mass: 14.006700
    reduced_to: 85
  - symbol: N  # 88
    coordinates: [  0.546273510000000,  0.609053180000000,  0.084783000000000 ]
    mass: 14.006700
    reduced_to: 85
  - symbol: N  # 89
    coordinates: [  0.046273510000000,  0.942386513333333,  0.084783000000000 ]
    mass: 14.006700
    reduced_to: 85
  - symbol: N  # 90
    coordinates: [  0.546273510000000,  0.942386513333333,  0.084783000000000 ]
    mass: 14.006700
    reduced_to: 85
  - symbol: N  # 91
    coordinates: [  0.046273510000000,  0.275719846666667,  0.584783000000000 ]
    mass: 14.006700
    reduced_to: 85
  - symbol: N  # 92
    coordinates: [  0.546273510000000,  0.275719846666667,  0.584783000000000 ]
    mass: 14.006700
    reduced_to: 85
  - symbol: N  # 93
    coordinates: [  0.046273510000000,  0.609053180000000,  0.584783000000000 ]
    mass: 14.006700
    reduced_to: 85
  - symbol: N  # 94
    coordinates: [  0.546273510000000,  0.609053180000000,  0.584783000000000 ]
    mass: 14.006700
    reduced_to: 85
  - symbol: N  # 95
    coordinates: [  0.046273510000000,  0.942386513333333,  0.584783000000000 ]
    mass: 14.006700
    reduced_to: 85
  - symbol: N  # 96
    coordinates: [  0.546273510000000,  0.942386513333333,  0.584783000000000 ]
    mass: 14.006700
    reduced_to: 85
  - symbol: O  # 97
    coordinates: [  0.118394325000000,  0.251178426666667,  0.359475295000000 ]
    mass: 15.999400
    reduced_to: 97
  - symbol: O  # 98
    coordinates: [  0.618394325000000,  0.251178426666667,  0.359475295000000 ]
    mass: 15.999400
    reduced_to: 97
  - symbol: O  # 99
    coordinates: [  0.118394325000000,  0.584511760000000,  0.359475295000000 ]
    mass: 15.999400
    reduced_to: 97
  - symbol: O  # 100
    coordinates: [  0.618394325000000,  0.584511760000000,  0.359475295000000 ]
    mass: 15.999400
    reduced_to: 97
  - symbol: O  # 101
    coordinates: [  0.118394325000000,  0.917845093333333,  0.359475295000000 ]
    mass: 15.999400
    reduced_to: 97
  - symbol: O  # 102
    coordinates: [  0.618394325000000,  0.917845093333333,  0.359475295000000 ]
    mass: 15.999400
    reduced_to: 97
  - symbol: O  # 103
    coordinates: [  0.118394325000000,  0.251178426666667,  0.859475295000000 ]
    mass: 15.999400
    reduced_to: 97
  - symbol: O  # 104
    coordinates: [  0.618394325000000,  0.251178426666667,  0.859475295000000 ]
    mass: 15.999400
    reduced_to: 97
  - symbol: O  # 105
    coordinates: [  0.118394325000000,  0.584511760000000,  0.859475295000000 ]
    mass: 15.999400
    reduced_to: 97
  - symbol: O  # 106
    coordinates: [  0.618394325000000,  0.584511760000000,  0.859475295000000 ]
    mass: 15.999400
    reduced_to: 97
  - symbol: O  # 107
    coordinates: [  0.118394325000000,  0.917845093333333,  0.859475295000000 ]
    mass: 15.999400
    reduced_to: 97
  - symbol: O  # 108
    coordinates: [  0.618394325000000,  0.917845093333333,  0.859475295000000 ]
    mass: 15.999400
    reduced_to: 97
  - symbol: O  # 109
    coordinates: [  0.381605675000000,  0.084511760000000,  0.140524705000000 ]
    mass: 15.999400
    reduced_to: 109
  - symbol: O  # 110
    coordinates: [  0.881605675000000,  0.084511760000000,  0.140524705000000 ]
    mass: 15.999400
    reduced_to: 109
  - symbol: O  # 111
    coordinates: [  0.381605675000000,  0.417845093333333,  0.140524705000000 ]
    mass: 15.999400
    reduced_to: 109
  - symbol: O  # 112
    coordinates: [  0.881605675000000,  0.417845093333333,  0.140524705000000 ]
    mass: 15.999400
    reduced_to: 109
  - symbol: O  # 113
    coordinates: [  0.381605675000000,  0.751178426666667,  0.140524705000000 ]
    mass: 15.999400
    reduced_to: 109
  - symbol: O  # 114
    coordinates: [  0.881605675000000,  0.751178426666667,  0.140524705000000 ]
    mass: 15.999400
    reduced_to: 109
  - symbol: O  # 115
    coordinates: [  0.381605675000000,  0.084511760000000,  0.640524705000000 ]
    mass: 15.999400
    reduced_to: 109
  - symbol: O  # 116
    coordinates: [  0.881605675000000,  0.084511760000000,  0.640524705000000 ]
    mass: 15.999400
    reduced_to: 109
  - symbol: O  # 117
    coordinates: [  0.381605675000000,  0.417845093333333,  0.640524705000000 ]
    mass: 15.999400
    reduced_to: 109
  - symbol: O  # 118
    coordinates: [  0.881605675000000,  0.417845093333333,  0.640524705000000 ]
    mass: 15.999400
    reduced_to: 109
  - symbol: O  # 119
    coordinates: [  0.381605675000000,  0.751178426666667,  0.640524705000000 ]
    mass: 15.999400
    reduced_to: 109
  - symbol: O  # 120
    coordinates: [  0.881605675000000,  0.751178426666667,  0.640524705000000 ]
    mass: 15.999400
    reduced_to: 109
