# epsilon and Z* of atoms 1 2 9 10 21
   4.04539031    0.00000000    0.00000000    0.00000000    4.04539031    0.00000000    0.00000000    0.00000000    4.09687154 
   2.50459190    0.03967163   -0.09852157    0.03967163    2.55040076    0.05688146   -0.06064095    0.03501107    2.53249237 
   2.39390846   -0.00000000    0.00000000   -0.00000000    2.39390846   -0.00000000    0.00000000   -0.00000000    2.95357901 
  -1.13670477   -0.23314782   -0.13231303   -0.23314782   -1.40592068    0.07639096   -0.11481260    0.06628709   -1.17761197 
  -1.08013808   -0.00000000    0.00000000   -0.00000000   -1.29863246   -0.06614857    0.00000000   -0.11081768   -1.46545323 
  -2.59430346   -0.00000000    0.00000000   -0.00000000   -2.59430346   -0.00000000    0.00000000   -0.00000000   -2.62186051 
