natom:   44
displacements:
- atom:    1
  displacement:
    [   0.0100000000000000,  0.0000000000000000,  0.0000000000000000 ]
- atom:    1
  displacement:
    [  -0.0100000000000000,  0.0000000000000000,  0.0000000000000000 ]
- atom:    1
  displacement:
    [   0.0000000000000000,  0.0000000000000000,  0.0100000000000000 ]
- atom:    1
  displacement:
    [   0.0000000000000000,  0.0000000000000000, -0.0100000000000000 ]
- atom:    3
  displacement:
    [   0.0100000000000000,  0.0000000000000000,  0.0000000000000000 ]
- atom:    3
  displacement:
    [   0.0000000000000000,  0.0000000000000000,  0.0100000000000000 ]
- atom:    3
  displacement:
    [   0.0000000000000000,  0.0000000000000000, -0.0100000000000000 ]
- atom:   17
  displacement:
    [   0.0100000000000000,  0.0000000000000000,  0.0000000000000000 ]
- atom:   17
  displacement:
    [  -0.0100000000000000,  0.0000000000000000,  0.0000000000000000 ]
- atom:   17
  displacement:
    [   0.0000000000000000,  0.0000000000000000,  0.0100000000000000 ]
- atom:   17
  displacement:
    [   0.0000000000000000,  0.0000000000000000, -0.0100000000000000 ]
- atom:   19
  displacement:
    [  -0.0050000000002710,  0.0086602540376879,  0.0000000000000000 ]
- atom:   19
  displacement:
    [   0.0050000000002710, -0.0086602540376879,  0.0000000000000000 ]
- atom:   19
  displacement:
    [   0.0000000000000000,  0.0000000000000000,  0.0100000000000000 ]
- atom:   19
  displacement:
    [   0.0000000000000000,  0.0000000000000000, -0.0100000000000000 ]
- atom:   41
  displacement:
    [   0.0100000000000000,  0.0000000000000000,  0.0000000000000000 ]
- atom:   41
  displacement:
    [   0.0000000000000000,  0.0000000000000000,  0.0100000000000000 ]
- atom:   41
  displacement:
    [   0.0000000000000000,  0.0000000000000000, -0.0100000000000000 ]
lattice:
- [     9.2017178200000007,     0.0000000000000000,     0.0000000000000000 ] # a
- [    -4.6008589100000004,     7.9689213900000002,     0.0000000000000000 ] # b
- [     0.0000000000000000,     0.0000000000000000,    14.0010752400000005 ] # c
atoms:
- symbol: Yb # 1
  position: [  0.2028553100000000,  0.7971446900000000,  0.4983845550000000 ]
  mass: 173.040000
- symbol: Yb # 2
  position: [  0.2028553100000000,  0.7971446900000000,  0.9983845550000000 ]
  mass: 173.040000
- symbol: Yb # 3
  position: [  0.3333333300000000,  0.6666666700000000,  0.2944781150000000 ]
  mass: 173.040000
- symbol: Yb # 4
  position: [  0.3333333300000000,  0.6666666700000000,  0.7944781150000000 ]
  mass: 173.040000
- symbol: Yb # 5
  position: [  0.5942893900000000,  0.7971446900000000,  0.4983845550000000 ]
  mass: 173.040000
- symbol: Yb # 6
  position: [  0.5942893900000000,  0.7971446900000000,  0.9983845550000000 ]
  mass: 173.040000
- symbol: Yb # 7
  position: [  0.2028553100000000,  0.4057106100000000,  0.4983845550000000 ]
  mass: 173.040000
- symbol: Yb # 8
  position: [  0.2028553100000000,  0.4057106100000000,  0.9983845550000000 ]
  mass: 173.040000
- symbol: Yb # 9
  position: [  0.7971446900000000,  0.5942893900000000,  0.2483845550000000 ]
  mass: 173.040000
- symbol: Yb # 10
  position: [  0.7971446900000000,  0.5942893900000000,  0.7483845550000000 ]
  mass: 173.040000
- symbol: Yb # 11
  position: [  0.6666666700000000,  0.3333333300000000,  0.0444781150000000 ]
  mass: 173.040000
- symbol: Yb # 12
  position: [  0.6666666700000000,  0.3333333300000000,  0.5444781150000000 ]
  mass: 173.040000
- symbol: Yb # 13
  position: [  0.4057106100000000,  0.2028553100000000,  0.2483845550000000 ]
  mass: 173.040000
- symbol: Yb # 14
  position: [  0.4057106100000000,  0.2028553100000000,  0.7483845550000000 ]
  mass: 173.040000
- symbol: Yb # 15
  position: [  0.7971446900000000,  0.2028553100000000,  0.2483845550000000 ]
  mass: 173.040000
- symbol: Yb # 16
  position: [  0.7971446900000000,  0.2028553100000000,  0.7483845550000000 ]
  mass: 173.040000
- symbol: Br # 17
  position: [  0.1363673000000000,  0.8636327000000000,  0.3078748400000000 ]
  mass: 79.904000
- symbol: Br # 18
  position: [  0.1363673000000000,  0.8636327000000000,  0.8078748400000000 ]
  mass: 79.904000
- symbol: Br # 19
  position: [  0.4647702000000000,  0.9295404100000000,  0.1475374700000000 ]
  mass: 79.904000
- symbol: Br # 20
  position: [  0.4647702000000000,  0.9295404100000000,  0.6475374700000001 ]
  mass: 79.904000
- symbol: Br # 21
  position: [  0.7272654100000000,  0.8636327000000000,  0.3078748400000000 ]
  mass: 79.904000
- symbol: Br # 22
  position: [  0.7272654100000000,  0.8636327000000000,  0.8078748400000000 ]
  mass: 79.904000
- symbol: Br # 23
  position: [  0.0704595900000000,  0.5352298000000000,  0.1475374700000000 ]
  mass: 79.904000
- symbol: Br # 24
  position: [  0.0704595900000000,  0.5352298000000000,  0.6475374700000001 ]
  mass: 79.904000
- symbol: Br # 25
  position: [  0.4647702000000000,  0.5352298000000000,  0.1475374700000000 ]
  mass: 79.904000
- symbol: Br # 26
  position: [  0.4647702000000000,  0.5352298000000000,  0.6475374700000001 ]
  mass: 79.904000
- symbol: Br # 27
  position: [  0.8636327000000000,  0.7272654100000000,  0.0578748400000000 ]
  mass: 79.904000
- symbol: Br # 28
  position: [  0.8636327000000000,  0.7272654100000000,  0.5578748400000000 ]
  mass: 79.904000
- symbol: Br # 29
  position: [  0.1363673000000000,  0.2727345900000000,  0.3078748400000000 ]
  mass: 79.904000
- symbol: Br # 30
  position: [  0.1363673000000000,  0.2727345900000000,  0.8078748400000000 ]
  mass: 79.904000
- symbol: Br # 31
  position: [  0.5352298000000000,  0.4647702000000000,  0.3975374700000000 ]
  mass: 79.904000
- symbol: Br # 32
  position: [  0.5352298000000000,  0.4647702000000000,  0.8975374700000001 ]
  mass: 79.904000
- symbol: Br # 33
  position: [  0.2727345900000000,  0.1363673000000000,  0.0578748400000000 ]
  mass: 79.904000
- symbol: Br # 34
  position: [  0.2727345900000000,  0.1363673000000000,  0.5578748400000000 ]
  mass: 79.904000
- symbol: Br # 35
  position: [  0.9295404100000000,  0.4647702000000000,  0.3975374700000000 ]
  mass: 79.904000
- symbol: Br # 36
  position: [  0.9295404100000000,  0.4647702000000000,  0.8975374700000001 ]
  mass: 79.904000
- symbol: Br # 37
  position: [  0.5352298000000000,  0.0704595900000000,  0.3975374700000000 ]
  mass: 79.904000
- symbol: Br # 38
  position: [  0.5352298000000000,  0.0704595900000000,  0.8975374700000001 ]
  mass: 79.904000
- symbol: Br # 39
  position: [  0.8636327000000000,  0.1363673000000000,  0.0578748400000000 ]
  mass: 79.904000
- symbol: Br # 40
  position: [  0.8636327000000000,  0.1363673000000000,  0.5578748400000000 ]
  mass: 79.904000
- symbol: O  # 41
  position: [  0.3333333300000000,  0.6666666700000000,  0.4494732750000000 ]
  mass: 15.999400
- symbol: O  # 42
  position: [  0.3333333300000000,  0.6666666700000000,  0.9494732750000000 ]
  mass: 15.999400
- symbol: O  # 43
  position: [  0.6666666700000000,  0.3333333300000000,  0.1994732750000000 ]
  mass: 15.999400
- symbol: O  # 44
  position: [  0.6666666700000000,  0.3333333300000000,  0.6994732750000000 ]
  mass: 15.999400