44   
18   

1    
  0.0100000000000000   0.0000000000000000   0.0000000000000000
  -0.0688475200    0.0173884500    0.0099820400
   0.0045989200   -0.0028934000    0.0013999000
   0.0006257700   -0.0020069900   -0.0186431800
  -0.0000062000   -0.0014574600   -0.0068375000
   0.0134648200   -0.0013862500    0.0036259300
  -0.0047565900   -0.0028710800    0.0012172500
   0.0021045100   -0.0051437000    0.0034911700
  -0.0000787200    0.0055726200    0.0011444300
   0.0012026900   -0.0046819700    0.0025429500
  -0.0002255100   -0.0038648300   -0.0018214800
   0.0000061600    0.0001725200   -0.0081864900
  -0.0009639500    0.0042214400   -0.0069976800
   0.0029848600    0.0019970600    0.0007884000
   0.0029831100    0.0036470100    0.0004293700
  -0.0037724600    0.0038913600    0.0007574200
  -0.0037691400    0.0038894300    0.0021024900
   0.0024357000   -0.0000662200    0.0026623900
  -0.0012419500    0.0011974500   -0.0022740900
   0.0003936600   -0.0050191600    0.0028105100
   0.0056858800   -0.0033904000    0.0055525400
   0.0006927700    0.0011795000   -0.0020394900
   0.0013164700    0.0014437300   -0.0024782600
   0.0046470600    0.0023303600    0.0024851000
   0.0061823900    0.0030460300    0.0015059500
  -0.0044610500    0.0025823200    0.0029067700
  -0.0060915500    0.0033797200    0.0022532600
  -0.0001024600    0.0022221700   -0.0026736400
   0.0082781600    0.0021180500   -0.0042734300
   0.0000683500   -0.0015454600   -0.0023416500
  -0.0000438700   -0.0022574900   -0.0022432900
   0.0033672800   -0.0024658700    0.0017819400
   0.0039258700   -0.0023844000    0.0026739900
  -0.0018724300   -0.0009861900   -0.0025769500
   0.0002332500   -0.0011022900   -0.0023326500
  -0.0027545300   -0.0029773200    0.0019395000
  -0.0039193400   -0.0025268000    0.0025404500
   0.0011965000    0.0031223100    0.0035882800
   0.0001477200    0.0045230500    0.0020140800
   0.0019348900   -0.0011644700   -0.0024919900
   0.0012519100   -0.0015755400   -0.0025750500
   0.0321336900   -0.0132296300   -0.0046318300
   0.0000893400    0.0000662600    0.0039724200
   0.0001365500   -0.0008593400    0.0046408600
   0.0008190200   -0.0021345800    0.0046092600

1    
 -0.0100000000000000   0.0000000000000000   0.0000000000000000
   0.0772279000   -0.0219911600   -0.0067600200
   0.0052830900   -0.0028130700    0.0012994400
  -0.0006449800    0.0019962900    0.0024826600
   0.0000007400    0.0014549900   -0.0092663500
  -0.0231461400   -0.0043075700   -0.0009213200
  -0.0051273000   -0.0028348600    0.0014790600
  -0.0021019500    0.0164851400   -0.0007747700
   0.0000771000    0.0058402700    0.0015512600
  -0.0011925800   -0.0067249100    0.0001517500
   0.0002322500   -0.0075572200    0.0045423000
  -0.0000047400   -0.0001723600   -0.0079237500
   0.0009641800   -0.0042444100   -0.0091067000
   0.0068885500    0.0036976000    0.0019100900
   0.0068886200    0.0020542400    0.0022632100
  -0.0061086900    0.0018176200    0.0019464600
  -0.0061071100    0.0018167800    0.0005939200
  -0.0063773800    0.0023585700   -0.0079069400
  -0.0027153800    0.0010885900   -0.0029120400
  -0.0003928800   -0.0044475700    0.0022423200
  -0.0055326600   -0.0059811700   -0.0003174800
   0.0032625200    0.0011046800   -0.0031334200
   0.0026487300    0.0008405100   -0.0027038400
   0.0035528000    0.0024022000    0.0025664300
   0.0020137400    0.0017184000    0.0035089300
  -0.0037366700    0.0021513000    0.0021483000
  -0.0021096300    0.0013634000    0.0027916500
   0.0001019800    0.0023483500   -0.0025096700
  -0.0088883800    0.0023486900   -0.0007341100
  -0.0000705400   -0.0030228600   -0.0028403500
   0.0000453800   -0.0023148500   -0.0029380100
   0.0048373300   -0.0022621200    0.0032742500
   0.0042712900   -0.0023462800    0.0023748900
  -0.0020854900   -0.0012991500   -0.0026074000
  -0.0042227200   -0.0011116300   -0.0028368200
  -0.0054474000   -0.0017658200    0.0031014600
  -0.0042805700   -0.0022059900    0.0025112600
  -0.0011240900    0.0063741200    0.0014276800
  -0.0001468500    0.0049412000    0.0030372600
   0.0020237300   -0.0011217900   -0.0026919400
   0.0027063500   -0.0007241700   -0.0026145700
  -0.0304118800    0.0121092400    0.0123052700
  -0.0000868400   -0.0000664300    0.0044353500
  -0.0001394300    0.0008578200    0.0037652800
  -0.0008240200    0.0021453700    0.0037890300

1    
  0.0000000000000000   0.0000000000000000   0.0100000000000000
   0.0132347300   -0.0076410800   -0.0533762800
   0.0049907300   -0.0028814000    0.0047917300
  -0.0076775400    0.0044326300    0.0007067900
   0.0013461100   -0.0007771800   -0.0038024700
  -0.0072304100   -0.0040074800   -0.0051228000
  -0.0048084900   -0.0026928200    0.0038685900
  -0.0001446200    0.0082654600   -0.0051228000
  -0.0000722000    0.0055106800    0.0038685900
   0.0022637100   -0.0033445900    0.0031566600
  -0.0017620100   -0.0060702900    0.0031559300
  -0.0000235500    0.0000135900   -0.0050515500
   0.0004999800   -0.0002886600   -0.0147883000
   0.0040283500   -0.0002881400    0.0031566600
   0.0043760200    0.0045610900    0.0031559300
  -0.0056970000    0.0032891600    0.0035452700
  -0.0043411500    0.0025063600    0.0035430000
   0.0035325800   -0.0020395400    0.0145542100
  -0.0021273300    0.0012282200   -0.0044861000
   0.0005608500   -0.0046916600    0.0006665800
   0.0046505700   -0.0026553400    0.0090861500
   0.0018859200    0.0008445000   -0.0020833400
   0.0016985100    0.0014220400   -0.0037306500
   0.0043435200    0.0018601200    0.0006665800
   0.0046248800   -0.0026998500    0.0090861500
  -0.0039829500    0.0022995500    0.0014422000
  -0.0041211600    0.0023793600    0.0031362600
  -0.0001350500    0.0023110600   -0.0039015000
  -0.0015617200    0.0020356800   -0.0000259500
   0.0002116000   -0.0020555000   -0.0020833400
  -0.0003822700   -0.0021819700   -0.0037306500
   0.0037609600   -0.0021713900    0.0043021900
   0.0042107000   -0.0024310500    0.0013019500
  -0.0020689600   -0.0010385700   -0.0039015000
  -0.0025438100    0.0003346500   -0.0000259500
  -0.0044974000   -0.0029732300    0.0045066800
  -0.0040623800   -0.0023042000    0.0008823600
   0.0003261900    0.0053814800    0.0045066800
  -0.0000356900    0.0046702300    0.0008823600
   0.0021750500   -0.0012557600   -0.0037784600
   0.0016878700   -0.0009744900   -0.0002208000
  -0.0083035700    0.0047940700    0.0195193500
  -0.0000852500    0.0000492200    0.0011629600
   0.0002378200   -0.0001373100    0.0019769000
   0.0010178400   -0.0005876500    0.0046037500

1    
  0.0000000000000000   0.0000000000000000  -0.0100000000000000
  -0.0034858700    0.0020125700    0.0566176600
   0.0048879400   -0.0028220500   -0.0020833500
   0.0077759300   -0.0044894300   -0.0169003100
  -0.0013345300    0.0007704900   -0.0122961800
  -0.0026832100   -0.0017066900    0.0078187700
  -0.0050676700   -0.0030101700   -0.0011704800
   0.0001364300    0.0031770700    0.0078187700
   0.0000730500    0.0058938200   -0.0011704800
  -0.0022659100   -0.0080786900   -0.0004591100
   0.0017508900   -0.0053352300   -0.0004587400
   0.0000229900   -0.0000132700   -0.0110468600
  -0.0005072900    0.0002928800   -0.0013303500
   0.0058634000    0.0060016800   -0.0004591100
   0.0054958900    0.0011513000   -0.0004587400
  -0.0041893100    0.0024187000   -0.0008382700
  -0.0055282600    0.0031917400   -0.0008394500
  -0.0078205600    0.0045152000   -0.0206377700
  -0.0018349500    0.0010594100   -0.0007184400
  -0.0005671400   -0.0047738500    0.0043888200
  -0.0044004000   -0.0066579000   -0.0037799000
   0.0020794300    0.0014442200   -0.0031048700
   0.0022645400    0.0008650400   -0.0014502900
   0.0038507000    0.0028780900    0.0043888200
   0.0035657100    0.0071398100   -0.0037799000
  -0.0042137000    0.0024327800    0.0036120400
  -0.0040758100    0.0023531700    0.0019216400
   0.0001359400    0.0022627900   -0.0012858100
   0.0015729100    0.0025400200   -0.0051685200
  -0.0002110200   -0.0025229500   -0.0031048700
   0.0003831200   -0.0023936700   -0.0014502900
   0.0044374700   -0.0025619700    0.0007462600
   0.0039844300   -0.0023004100    0.0037500200
  -0.0018916600   -0.0012491300   -0.0012858100
  -0.0014132700   -0.0026321900   -0.0051685200
  -0.0037055200   -0.0017891100    0.0005074200
  -0.0041341500   -0.0024268100    0.0041713900
  -0.0003033500    0.0041036300    0.0005074200
   0.0000346000    0.0047936800    0.0041713900
   0.0017850700   -0.0010306100   -0.0014072000
   0.0022640200   -0.0013071300   -0.0049618100
   0.0084466200   -0.0048766600   -0.0110751000
   0.0000839300   -0.0000484600    0.0072444700
  -0.0002448000    0.0001413300    0.0064241800
  -0.0010166300    0.0005869500    0.0038014400

3    
  0.0100000000000000   0.0000000000000000   0.0000000000000000
   0.0056178600   -0.0048658600   -0.0063640600
   0.0049440800   -0.0043118700    0.0026863200
  -0.0275131600   -0.0000017300   -0.0077355900
  -0.0002430400    0.0000000900   -0.0080404800
  -0.0043477700   -0.0008627600    0.0090889600
  -0.0049516300   -0.0013993300    0.0000055000
  -0.0028317300    0.0057549200    0.0013158300
  -0.0025261000    0.0057119800    0.0013458300
   0.0063676100   -0.0057280000    0.0013335000
   0.0003040600   -0.0057220100    0.0013446300
   0.0016819300    0.0000025600   -0.0080217700
   0.0016819600   -0.0000042200   -0.0080158900
   0.0039932900   -0.0013724300    0.0018425500
   0.0049604800    0.0026881100    0.0013204800
  -0.0059206700    0.0070929600    0.0008354900
  -0.0049489100    0.0030325700    0.0013671600
  -0.0004772800    0.0013475500   -0.0028218700
  -0.0020288100    0.0012149000   -0.0027133300
   0.0007922400   -0.0047580000    0.0025615000
   0.0003146400   -0.0047183100    0.0025280300
   0.0037667600    0.0010887200   -0.0023710200
   0.0019518100    0.0010840900   -0.0024854900
   0.0116536100    0.0062549800    0.0086271500
   0.0041937800    0.0022405800    0.0028296500
   0.0036539200   -0.0016692200   -0.0038187400
  -0.0039729300    0.0024765500    0.0022274600
  -0.0012862100    0.0022986300   -0.0025955300
  -0.0007742200    0.0022994200   -0.0026037800
   0.0018691900   -0.0022991900   -0.0026029900
   0.0000752100   -0.0022986600   -0.0025992700
   0.0012428900   -0.0003570800    0.0006496900
   0.0039469600   -0.0022703600    0.0029255000
  -0.0018738900   -0.0003399900   -0.0023667800
  -0.0018921500   -0.0006464200   -0.0026155800
  -0.0069313600   -0.0043466200    0.0043889000
  -0.0042290400   -0.0024503000    0.0021292200
   0.0006105500    0.0047274100    0.0025284100
   0.0000147000    0.0047199800    0.0025285200
   0.0021055000   -0.0019589200   -0.0028294400
   0.0020868300   -0.0016530100   -0.0025884400
   0.0091289600   -0.0000064100    0.0041365100
   0.0009858400   -0.0000023200    0.0042129100
  -0.0011139300    0.0000052100    0.0042186800
  -0.0000818500    0.0000018000    0.0042116500

3    
  0.0000000000000000   0.0000000000000000   0.0100000000000000
  -0.0056873400    0.0032835900    0.0102005600
   0.0061542400   -0.0035531500    0.0055955200
   0.0000000000    0.0000000000   -0.1168171600
   0.0000000000    0.0000000000   -0.0038282000
   0.0056873400    0.0032835900    0.0102005600
  -0.0061542400   -0.0035531500    0.0055955200
   0.0000000000   -0.0065671800    0.0102005600
   0.0000000000    0.0071063000    0.0055955200
   0.0000000000   -0.0069126900   -0.0053816100
   0.0000000000   -0.0055520800    0.0043531500
   0.0000000000    0.0000000000   -0.0052760900
   0.0000000000    0.0000000000   -0.0052833700
   0.0059865700    0.0034563500   -0.0053816100
   0.0048082400    0.0027760400    0.0043531500
  -0.0059865700    0.0034563500   -0.0053816100
  -0.0048082400    0.0027760400    0.0043531500
  -0.0009546400    0.0005511600    0.0018592700
  -0.0021436700    0.0012376500   -0.0041196300
   0.0000000000   -0.0092017400    0.0097603200
   0.0000000000   -0.0054325400    0.0002882400
   0.0009546400    0.0005511600    0.0018592700
   0.0021436700    0.0012376500   -0.0041196300
   0.0079689400    0.0046008700    0.0097603200
   0.0047047100    0.0027162700    0.0002882400
  -0.0079689400    0.0046008700    0.0097603200
  -0.0047047100    0.0027162700    0.0002882400
   0.0000000000    0.0028980000   -0.0029207500
   0.0000000000    0.0027008200   -0.0035006600
   0.0000000000   -0.0011023300    0.0018592700
   0.0000000000   -0.0024753000   -0.0041196300
   0.0019945700   -0.0011515600    0.0043022600
   0.0044354600   -0.0025608200    0.0006016100
  -0.0025097400   -0.0014490000   -0.0029207500
  -0.0023389800   -0.0013504100   -0.0035006600
  -0.0019945700   -0.0011515600    0.0043022600
  -0.0044354600   -0.0025608200    0.0006016100
   0.0000000000    0.0023031300    0.0043022600
   0.0000000000    0.0051216300    0.0006016100
   0.0025097400   -0.0014490000   -0.0029207500
   0.0023389800   -0.0013504100   -0.0035006600
   0.0000000000    0.0000000000    0.0577136200
   0.0000000000    0.0000000000   -0.0000133300
   0.0000000000    0.0000000000    0.0091446900
   0.0000000000    0.0000000000    0.0012450500

3    
  0.0000000000000000   0.0000000000000000  -0.0100000000000000
   0.0154421300   -0.0089155200   -0.0074099500
   0.0037289800   -0.0021529300   -0.0028969400
   0.0000000000    0.0000000000    0.0975386100
   0.0000000000    0.0000000000   -0.0122495800
  -0.0154421300   -0.0089155200   -0.0074099500
  -0.0037289800   -0.0021529300   -0.0028969400
   0.0000000000    0.0178310400   -0.0074099500
   0.0000000000    0.0043058600   -0.0028969400
   0.0000000000   -0.0044795700    0.0080763500
   0.0000000000   -0.0058621100   -0.0016450100
   0.0000000000    0.0000000000   -0.0108050700
   0.0000000000    0.0000000000   -0.0108102600
   0.0038794200    0.0022397900    0.0080763500
   0.0050767400    0.0029310600   -0.0016450100
  -0.0038794200    0.0022397900    0.0080763500
  -0.0050767400    0.0029310600   -0.0016450100
  -0.0030029700    0.0017337600   -0.0070324200
  -0.0018172000    0.0010491600   -0.0010721800
   0.0000000000    0.0000425900   -0.0049867600
   0.0000000000   -0.0040337200    0.0047531300
   0.0030029700    0.0017337600   -0.0070324200
   0.0018172000    0.0010491600   -0.0010721800
  -0.0000368900   -0.0000213000   -0.0049867600
   0.0034933000    0.0020168600    0.0047531300
   0.0000368900   -0.0000213000   -0.0049867600
  -0.0034933000    0.0020168600    0.0047531300
   0.0000000000    0.0016772500   -0.0022676700
   0.0000000000    0.0018765900   -0.0016871500
   0.0000000000   -0.0034675300   -0.0070324200
   0.0000000000   -0.0020983300   -0.0010721800
   0.0061757100   -0.0035655500    0.0007724100
   0.0037579600   -0.0021696600    0.0044410100
  -0.0014525400   -0.0008386300   -0.0022676700
  -0.0016251800   -0.0009383000   -0.0016871500
  -0.0061757100   -0.0035655500    0.0007724100
  -0.0037579600   -0.0021696600    0.0044410100
   0.0000000000    0.0071310900    0.0007724100
   0.0000000000    0.0043393200    0.0044410100
   0.0014525400   -0.0008386300   -0.0022676700
   0.0016251800   -0.0009383000   -0.0016871500
   0.0000000000    0.0000000000   -0.0456585800
   0.0000000000    0.0000000000    0.0084185900
   0.0000000000    0.0000000000   -0.0007255700
   0.0000000000    0.0000000000    0.0071574000

17   
  0.0100000000000000   0.0000000000000000   0.0000000000000000
   0.0093434800   -0.0040789200    0.0070538800
   0.0056854800   -0.0028035700    0.0011984700
   0.0017701900    0.0000571700   -0.0070177100
  -0.0000381600    0.0000657200   -0.0081928900
  -0.0062333200   -0.0028129100    0.0014390000
  -0.0056152100   -0.0025273300    0.0016309700
   0.0000632800    0.0064561300    0.0016534800
  -0.0000688700    0.0057594200    0.0012466600
   0.0052366300   -0.0040263800    0.0023119000
   0.0000820600   -0.0058851300    0.0013936400
   0.0000973400   -0.0005019000   -0.0083929500
   0.0001167500   -0.0008097300   -0.0085620000
   0.0071830300    0.0066673200    0.0007708200
   0.0050564400    0.0028011100    0.0012590900
  -0.0056736600    0.0024270500    0.0016358900
  -0.0049939300    0.0028357700    0.0011518400
  -0.0335060100   -0.0098254200   -0.0096213700
  -0.0020516800    0.0011328700   -0.0025465300
   0.0044215300   -0.0040053900   -0.0018547300
   0.0001459900   -0.0046084100    0.0027488300
   0.0065927700    0.0012590600   -0.0028675000
   0.0020901300    0.0011131000   -0.0025970800
   0.0037920000    0.0011477400    0.0015321600
   0.0039735000    0.0019891700    0.0028039800
  -0.0036131900    0.0022930900    0.0021783500
  -0.0039657900    0.0023454300    0.0025770400
   0.0003621500    0.0025425100   -0.0016667800
   0.0001183500    0.0026849800   -0.0033982800
   0.0006625300   -0.0047073900   -0.0027370600
   0.0000404200   -0.0022954500   -0.0025200500
   0.0044418000   -0.0022138900    0.0023157800
   0.0041677000   -0.0023472300    0.0026530700
  -0.0021534100   -0.0013756700   -0.0024390600
  -0.0021548600   -0.0010951000   -0.0027167300
  -0.0050750400   -0.0008515100    0.0019049500
  -0.0041862900   -0.0023126600    0.0026219500
   0.0079450400    0.0105947800    0.0063457100
  -0.0000321900    0.0048238000    0.0024851900
   0.0022977900   -0.0009782700   -0.0026888600
   0.0022985600   -0.0009797500   -0.0024544700
   0.0015680400   -0.0012727200    0.0058525200
  -0.0001075700   -0.0001031000    0.0042043800
  -0.0000173500    0.0032836700    0.0049007500
  -0.0000664400    0.0001379200    0.0044037400

17   
 -0.0100000000000000   0.0000000000000000   0.0000000000000000
   0.0005183900   -0.0016470600   -0.0042868700
   0.0042033500   -0.0029067200    0.0014957900
  -0.0015176800   -0.0002035800   -0.0090917100
   0.0000375700   -0.0000661700   -0.0078893900
  -0.0036501300   -0.0028920600    0.0012512200
  -0.0042746500   -0.0031824700    0.0010692800
  -0.0000641900    0.0049586000    0.0010433600
   0.0000696000    0.0056631700    0.0014504300
  -0.0053788400   -0.0075599500    0.0003140500
  -0.0000835100   -0.0055301200    0.0013059200
  -0.0000975700    0.0005044300   -0.0077032100
  -0.0001150300    0.0008094400   -0.0075320300
   0.0027138900   -0.0009066600    0.0019071900
   0.0048301600    0.0029072700    0.0014429700
  -0.0042082500    0.0032707100    0.0010658700
  -0.0048903800    0.0028708600    0.0015478300
   0.0293778000    0.0122682200    0.0044733800
  -0.0019175600    0.0011588400   -0.0026452000
  -0.0043562100   -0.0054359500    0.0068260800
  -0.0001504000   -0.0048466800    0.0023005800
  -0.0027342100    0.0010282200   -0.0023214700
   0.0018783700    0.0011808600   -0.0025950800
   0.0043870800    0.0035886300    0.0035301800
   0.0042128500    0.0027388300    0.0022493200
  -0.0045745500    0.0024328600    0.0028713900
  -0.0042196800    0.0023789200    0.0024769100
  -0.0003626000    0.0020380300   -0.0035305300
  -0.0001172300    0.0018972900   -0.0017852000
  -0.0006654600    0.0001410400   -0.0024514800
  -0.0000422400   -0.0022892900   -0.0026723700
   0.0037451900   -0.0025158800    0.0027399800
   0.0040153900   -0.0023792900    0.0024005300
  -0.0018152700   -0.0009205400   -0.0027460800
  -0.0018161900   -0.0012042700   -0.0024823800
  -0.0031002400   -0.0038407200    0.0031369700
  -0.0039993400   -0.0024133700    0.0024320800
  -0.0078086500   -0.0010162500   -0.0012015800
   0.0000309600    0.0046285000    0.0025683000
   0.0016715000   -0.0013099900   -0.0025010800
   0.0016715200   -0.0013107800   -0.0027337700
  -0.0015744700    0.0012710500    0.0025667400
   0.0001064300    0.0001013200    0.0042001100
   0.0000008700   -0.0033205900    0.0035000700
   0.0000636100   -0.0001387000    0.0040029500

17   
  0.0000000000000000   0.0000000000000000   0.0100000000000000
   0.0103918600   -0.0059997400    0.0193769200
   0.0052554500   -0.0030342300   -0.0005324000
  -0.0002189100    0.0001263900   -0.0036056100
  -0.0001142500    0.0000659600   -0.0095804900
  -0.0054874100   -0.0028244600    0.0018663000
  -0.0050509600   -0.0031873500    0.0002076500
  -0.0002976500    0.0061644600    0.0018663000
   0.0002348500    0.0059679300    0.0002076500
   0.0020140300   -0.0048388400    0.0039279500
   0.0000974500   -0.0056659400    0.0000418400
  -0.0000144300    0.0000083300   -0.0089640200
   0.0002307400   -0.0001332200   -0.0083741800
   0.0051975700    0.0006752100    0.0039279500
   0.0049555800    0.0027485800    0.0000418400
  -0.0049582200    0.0028626300    0.0037192200
  -0.0050401000    0.0029099000    0.0001636900
  -0.0092535800    0.0053425600   -0.0386998300
  -0.0019283100    0.0011133100   -0.0020043200
  -0.0046643600   -0.0052233400    0.0057282800
   0.0007156600   -0.0041446300    0.0035497100
   0.0022564600    0.0011500500   -0.0035319700
   0.0019792700    0.0010542800   -0.0019769200
   0.0021913600    0.0066511300    0.0057282800
   0.0039471800    0.0014525400    0.0035497100
  -0.0039852500    0.0023008900    0.0022879000
  -0.0041758200    0.0024109100    0.0028963100
   0.0006822100    0.0028120300   -0.0015177100
  -0.0007818900    0.0016544600   -0.0015011600
   0.0001322600   -0.0025291800   -0.0035319700
   0.0000766000   -0.0022412400   -0.0019769200
   0.0042481600   -0.0024526800    0.0015976300
   0.0040305300   -0.0023270300    0.0032851100
  -0.0020941800   -0.0019968200   -0.0015177100
  -0.0018237500   -0.0001501000   -0.0015011600
  -0.0043616500   -0.0073782500    0.0026520300
  -0.0040458100   -0.0023346900    0.0032452300
   0.0042089200    0.0074664300    0.0026520300
  -0.0000010000    0.0046711200    0.0032452300
   0.0018384200   -0.0010614100   -0.0023344400
   0.0020720100   -0.0011962800   -0.0023369900
   0.0027906800   -0.0016112000    0.0030362800
  -0.0000384100    0.0000221700    0.0054093700
  -0.0011875000    0.0006856000    0.0041471400
  -0.0000238500    0.0000137700    0.0051302400

17   
  0.0000000000000000   0.0000000000000000  -0.0100000000000000
  -0.0001752400    0.0001011800   -0.0158138000
   0.0046265300   -0.0026711300    0.0032311100
   0.0002310500   -0.0001334000   -0.0124845200
   0.0001133200   -0.0000654200   -0.0065170900
  -0.0043990400   -0.0028835300    0.0008422300
  -0.0048339700   -0.0025203300    0.0024844000
   0.0002976900    0.0052514500    0.0008422300
  -0.0002343200    0.0054465100    0.0024844000
  -0.0020252600   -0.0065987400   -0.0012179500
  -0.0000964000   -0.0057489700    0.0026547900
   0.0000130800   -0.0000075500   -0.0071348500
  -0.0002327400    0.0001343700   -0.0077086300
   0.0047020500    0.0050533000   -0.0012179500
   0.0049305500    0.0029579700    0.0026547900
  -0.0049273200    0.0028447900   -0.0010260100
  -0.0048451500    0.0027973500    0.0025323200
   0.0048406500   -0.0027947500    0.0326967500
  -0.0020317000    0.0011730000   -0.0031808400
   0.0047327800   -0.0042275900   -0.0007010700
  -0.0007085700   -0.0053141200    0.0015087400
   0.0017129800    0.0011377300   -0.0016572900
   0.0019815500    0.0012341600   -0.0032090900
   0.0060275900   -0.0019849100   -0.0007010700
   0.0042478800    0.0032707000    0.0015087400
  -0.0042080600    0.0024295200    0.0027719800
  -0.0040210500    0.0023215500    0.0021548100
  -0.0006964000    0.0017501000   -0.0036878600
   0.0007747000    0.0029118800   -0.0036713000
  -0.0001288100   -0.0020523500   -0.0016572900
  -0.0000780400   -0.0023331500   -0.0032090900
   0.0039485800   -0.0022797100    0.0034500900
   0.0041636200   -0.0024038600    0.0017675200
  -0.0018638300   -0.0002719500   -0.0036878600
  -0.0021344100   -0.0021268500   -0.0036713000
  -0.0038310400    0.0026255400    0.0023823100
  -0.0041496700   -0.0023971500    0.0018109000
  -0.0041893000    0.0020050100    0.0023823100
   0.0000011600    0.0047923000    0.0018109000
   0.0021218800   -0.0012250700   -0.0028520700
   0.0018878300   -0.0010899400   -0.0028544100
  -0.0027787900    0.0016043400    0.0053442200
   0.0000385700   -0.0000222700    0.0030033600
   0.0011734300   -0.0006774800    0.0042690400
   0.0000216400   -0.0000124900    0.0032734200

19   
 -0.0050000000002710   0.0086602540376879   0.0000000000000000
   0.0045043300   -0.0024820900    0.0011024900
   0.0032752200   -0.0014218600    0.0008248600
  -0.0004108200    0.0084987100   -0.0119193200
  -0.0001561300    0.0000358900   -0.0086382000
  -0.0048977100   -0.0026074700    0.0016656500
  -0.0087903900    0.0012312100    0.0052301200
  -0.0000049400    0.0052926200    0.0014607400
   0.0001245600    0.0034853200    0.0013235200
   0.0004525700   -0.0063019700    0.0016854100
   0.0001025100   -0.0058539900    0.0012335600
  -0.0003097600   -0.0034613600   -0.0059427400
  -0.0000077800   -0.0001665400   -0.0083757600
   0.0057109500    0.0026285300    0.0006805800
   0.0050546200    0.0027389600    0.0014174300
  -0.0069283800    0.0032674800    0.0009576700
  -0.0052003200    0.0029172600    0.0013819900
  -0.0035522700   -0.0001099900   -0.0006817300
  -0.0019580300    0.0010252500   -0.0024420100
   0.0197954100   -0.0384845100    0.0045536900
   0.0000861800   -0.0050236000    0.0025803400
  -0.0008177700    0.0013819200   -0.0053623900
   0.0018114500    0.0008083300   -0.0017353700
   0.0061744600    0.0051672500    0.0023025400
   0.0041396200    0.0023935300    0.0025542200
  -0.0075319100    0.0084740000    0.0019915200
  -0.0041419200    0.0024368800    0.0025790900
  -0.0003034900    0.0025226700   -0.0027448700
  -0.0000506500    0.0023532700   -0.0025272600
  -0.0001829800   -0.0018419100   -0.0024833200
  -0.0000500100   -0.0021777800   -0.0026728800
   0.0039314400   -0.0019116000    0.0029029500
   0.0039143000   -0.0019196100    0.0025800500
  -0.0110412400    0.0049923100   -0.0071079300
  -0.0020554500   -0.0011134700   -0.0025414800
  -0.0039461900   -0.0022471700    0.0027005800
  -0.0039420900   -0.0022594100    0.0025032600
   0.0002286500    0.0049133000    0.0044968200
   0.0002278000    0.0049085300    0.0007270900
   0.0030574700   -0.0016742700   -0.0028519100
   0.0020874800   -0.0011976400   -0.0025418900
   0.0001182500   -0.0006502300    0.0018765400
   0.0009423400    0.0022382600    0.0069350800
   0.0005161600    0.0090525400    0.0060311100
   0.0000244400    0.0001424300    0.0042901400

19   
  0.0050000000002710  -0.0086602540376879   0.0000000000000000
   0.0053850200   -0.0032280300    0.0015977300
   0.0066306700   -0.0042857200    0.0018881200
   0.0003808700   -0.0087176400   -0.0039315400
   0.0001588400   -0.0000372500   -0.0074479400
  -0.0049910200   -0.0031041400    0.0010323100
  -0.0009276000   -0.0070297600   -0.0027566200
   0.0000060800    0.0061259100    0.0012334100
  -0.0001196800    0.0079280800    0.0013720500
  -0.0004583700   -0.0051227300    0.0010119100
  -0.0001037800   -0.0055632300    0.0014628600
   0.0003009300    0.0034588400   -0.0101396100
   0.0000071500    0.0001661800   -0.0077153000
   0.0040500200    0.0032344700    0.0021048300
   0.0048312800    0.0029701400    0.0012780000
  -0.0029444600    0.0024495800    0.0017528200
  -0.0046824500    0.0027889500    0.0013129000
  -0.0003934200    0.0023905100   -0.0045186300
  -0.0020042300    0.0012613400   -0.0027426400
  -0.0197559000    0.0291986300    0.0003711200
  -0.0000869600   -0.0044351900    0.0024731100
   0.0048007900    0.0009124400    0.0001976800
   0.0021545000    0.0014848700   -0.0034600000
   0.0019997000   -0.0004527400    0.0027517800
   0.0040504200    0.0023354900    0.0025006300
  -0.0005764300   -0.0038936000    0.0030665100
  -0.0040467400    0.0022906900    0.0024757700
   0.0003064100    0.0020601100   -0.0024450600
   0.0000533600    0.0022246000   -0.0026605100
   0.0001768100   -0.0027342300   -0.0027065100
   0.0000478600   -0.0024012600   -0.0025179500
   0.0042603700   -0.0028124300    0.0021574500
   0.0042717900   -0.0028061500    0.0024750900
   0.0068996300   -0.0072047700    0.0018218500
  -0.0019069000   -0.0011783500   -0.0026473700
  -0.0042460400   -0.0024843600    0.0023526200
  -0.0042442000   -0.0024670800    0.0025517400
  -0.0002239100    0.0045393300    0.0005589600
  -0.0002247900    0.0045368100    0.0043333900
   0.0008710200   -0.0006466200   -0.0023211300
   0.0018756700   -0.0010914000   -0.0026461300
  -0.0001176000    0.0006571400    0.0065369400
  -0.0009471500   -0.0022337000    0.0014591000
  -0.0004920100   -0.0089399800    0.0024112300
  -0.0000255400   -0.0001437500    0.0041150500

19   
  0.0000000000000000   0.0000000000000000   0.0100000000000000
   0.0052334400   -0.0026442900   -0.0005130200
   0.0077628400   -0.0000815600    0.0076587200
   0.0000000000   -0.0073524800   -0.0005326600
   0.0000000000   -0.0003457700   -0.0102733900
  -0.0052334400   -0.0026442900   -0.0005130200
  -0.0077628400   -0.0000815600    0.0076587200
   0.0000000000    0.0061515200    0.0002616400
   0.0000000000    0.0054082100    0.0019481800
   0.0000000000   -0.0048472000    0.0031292400
   0.0000000000   -0.0058847600    0.0001225200
   0.0000000000    0.0021696900   -0.0062902300
   0.0000000000   -0.0004618600   -0.0099601600
   0.0060066100    0.0015835800    0.0033710400
   0.0044385100    0.0031670300   -0.0002974100
  -0.0060066100    0.0015835800    0.0033710400
  -0.0044385100    0.0031670300   -0.0002974100
  -0.0063538900   -0.0002158300    0.0006335700
  -0.0017569500    0.0009541700   -0.0015746100
   0.0000000000   -0.0020620400   -0.0400061600
   0.0000000000   -0.0046682700    0.0038061300
   0.0063538900   -0.0002158300    0.0006335700
   0.0017569500    0.0009541700   -0.0015746100
   0.0043284000    0.0028690600    0.0008323200
   0.0040679000    0.0023198900    0.0032894400
  -0.0043284000    0.0028690600    0.0008323200
  -0.0040679000    0.0023198900    0.0032894400
   0.0000000000    0.0025329700   -0.0035179400
   0.0000000000    0.0021428000   -0.0018362500
   0.0000000000   -0.0026936700   -0.0028395800
   0.0000000000   -0.0022304600   -0.0022220900
   0.0041207700   -0.0022908200    0.0028165600
   0.0039208000   -0.0020368200    0.0028197800