  44   44
1 1
     7.303771000000001    -1.968980500000000    -0.837103000000000
    -1.968980500284620     5.030188156427426     0.483301642424374
    -0.836030153496197     0.482682234136787     5.499696999999999
1 2
     0.034208500000000     0.004016500000000    -0.005023000000000
     0.004016500000581     0.038846354712735     0.002900030402349
    -0.005139590192958     0.002967343781214    -0.343754000000000
1 3
    -0.063537500000000     0.200164000000000     1.056292000000000
     0.200164000028934     0.167591978580850    -0.609850470586926
     0.772673390366186    -0.446103189891336    -0.880355000000000
1 4
     0.000347000000000     0.145622500000000    -0.121442500000000
     0.145622500021050     0.168497379162286     0.070114860071129
    -0.134032038419298     0.077383433455823    -0.424685500000000
1 5
    -1.830548000000001    -0.146066000000000    -0.227362500000000
     0.146004660190954     0.329716585432548     0.115026360164367
     0.227360000117030     0.115039714007099     0.647078500000000
1 6
    -0.018535500000000     0.001811000000000     0.013090500000000
    -0.001817111860985     0.016562971315567    -0.015930537303766
    -0.012959099330749    -0.015867754747265    -0.251953500000000
1 7
    -0.210323000000000     1.081442000000000    -0.213297000000000
     0.789371339944257    -1.290508414567453     0.139388520799987
     0.014052685277070    -0.254419392895099     0.647078500000000
1 8
     0.007791000000000     0.013382500000000     0.020341500000000
     0.017010611863181    -0.009763528684433    -0.003371436897176
     0.007262329047771     0.019156786603416    -0.251953500000000
1 9
    -0.119763500000000    -0.102147000000000    -0.119560000000000
    -0.096808312581586     0.185300263390759    -0.133788800538713
    -0.226480972640628    -0.236705247927494    -0.180788500000000
1 10
     0.022888000000000    -0.184619500000000     0.318189000000000
    -0.179166469548632     0.042706072553461     0.077829703043733
     0.175644994044589     0.036752978278350    -0.180733500000000
1 11
    -0.000545000000000    -0.017244000000000     0.013137000000000
    -0.017244000002493    -0.020456656085251    -0.007584650486892
     0.002326786058683    -0.001343370557230    -0.299765500000000
1 12
     0.096406500000000    -0.423292500000000    -0.105451000000000
    -0.423292500061188    -0.392369577677227     0.060882163240716
    -0.050363335333830     0.029077285210173     0.672897500000000
1 13
     0.195184500000000     0.085027000000000     0.056084500000000
     0.079688312579111    -0.129647736609241     0.170436397553307
     0.091752271608806     0.314490899730164    -0.180788500000000
1 14
     0.195275500000000    -0.079638500000000     0.091692000000000
    -0.085091530489567    -0.129681427446539    -0.314474608746550
     0.055993484166205    -0.170489516018362    -0.180733500000000
1 15
    -0.116811500000000    -0.103687000000000     0.059452000000000
    -0.103687000014988    -0.236538934731583    -0.034324628206342
     0.075384386825817    -0.043523196023435    -0.219177000000000
1 16
    -0.116898500000000    -0.103632500000000    -0.075428500000000
    -0.103632500014980    -0.236563003552237     0.043548664782717
    -0.059355537282217     0.034268935425306    -0.219122500000000
1 17
    -0.440654000000000     0.121239500000000    -0.528466500000000
     0.121239500017525    -0.300658684067050     0.305110276054752
    -0.567657033890307     0.327736941300266    -1.759599000000000
1 18
    -0.073671500000000    -0.005443000000000    -0.031897500000000
    -0.005443000000787    -0.079956535030853     0.018416030212807
     0.014619093710585    -0.008440337688505     0.188383000000000
1 19
    -0.039327000000000     0.028579500000000    -0.028409500000000
     0.012475111242913    -0.036138775813423    -0.021097822213387
    -0.056399697008854    -0.004109509013445     0.186112000000000
1 20
    -0.560927000000000    -0.129538500000000    -0.293501000000000
    -0.269894294487168    -0.321546964747807    -0.285094985596174
    -0.452548763130437    -0.200128046828498    -0.643302500000000
1 21
     0.128487500000000    -0.003741000000000    -0.054696500000000
     0.004321701651863    -0.051753231745315    -0.002786581074445
     0.009675589375707     0.029986116403023    -0.051076500000000
1 22
     0.066613000000000    -0.030161000000000    -0.011279000000000
     0.033014607907449    -0.014606802042442     0.033597744217380
     0.028301564449860    -0.027849929593867     0.114018000000000
1 23
    -0.054713000000000     0.003592000000000     0.004066500000000
     0.019696388761738    -0.020752775813423     0.035152259817286
    -0.024640909301445     0.050898324878605     0.186112000000000
1 24
    -0.208432500000000    -0.066381500000000     0.100149000000000
     0.073974294458846    -0.674041464747807     0.396726814852595
    -0.052958408989451     0.491982748708108    -0.643302500000000
1 25
     0.036219000000000    -0.021551000000000    -0.037923500000000
    -0.021551000003115     0.011334048695590     0.021895142935195
    -0.011537639113864     0.006661259047720     0.108492000000000
1 26
     0.199096000000000    -0.100816000000000     0.026919500000000
    -0.100816000014573     0.082683710514344    -0.015541980572573
     0.002267655133169    -0.001309231301470    -0.060731000000000
1 27
     0.010222000000000     0.006309000000000     0.008198500000000
    -0.003595813132057    -0.016044874164352     0.006491437752103
     0.013549757725851    -0.002413407601997     0.130784500000000
1 28
    -0.858327000000000     0.011532000000000     0.176966000000000
    -0.367389550579267    -0.216410119270955     0.131279636268633
     0.156731470228738     0.025217091001908    -0.257128500000000
1 29
    -0.006944500000000    -0.073870000000000    -0.024935000000000
    -0.081932701663082     0.083678768254685     0.048761849038742
    -0.021130943879879    -0.023372364396855    -0.051076500000000
1 30
     0.004462500000000    -0.002868000000000    -0.034736000000000
    -0.066043607912223     0.047543697957558    -0.007030971578699
     0.038269528748570    -0.010584908981717     0.114018000000000
1 31
     0.073502500000000     0.010187500000000     0.074615500000000
     0.010187500001473     0.085266011735589    -0.043079279013832
     0.033825430055864    -0.019529121146797    -0.177796500000000
1 32
     0.017271000000000     0.001906000000000    -0.014955000000000
     0.001906000000275     0.019471859226310     0.008634273276355
    -0.011313563968964     0.006531889202504     0.122403500000000
1 33
    -0.010653000000000    -0.015648000000000    -0.001522500000000
    -0.005743186869293     0.004830125835648    -0.010345828149491
     0.008864951156092    -0.010527730603865     0.130784500000000
1 34
    -0.222798500000000    -0.000467000000000    -0.025208500000000
     0.378454550580866    -0.851938619270955    -0.218896869751510
     0.056527093695595    -0.148341980281715    -0.257128500000000
1 35
    -0.134643500000000     0.060575000000000     0.058098000000000
     0.151843702112030     0.012815161508150     0.158285195111930
     0.039594014057648     0.059206065816476    -0.199963000000000
1 36
    -0.018061500000000     0.016040500000000    -0.001459500000000
     0.018983191555674     0.006603437747560    -0.059915967565157
    -0.003588395902623    -0.006130198140690     0.164451500000000
1 37
    -0.116029500000000     0.162590500000000    -0.108030000000000
     0.071321797920229    -0.005798838491850    -0.129456941468670
    -0.031476950030084    -0.063892454917481    -0.199963000000000
1 38
    -0.014728500000000     0.020907500000000     0.051159000000000
     0.017964808449667     0.003270437747560     0.031221947859493
     0.003514709369142     0.006172741080628     0.164451500000000
1 39
     0.004442000000000     0.002134000000000    -0.009997500000000
     0.002134000000308     0.006906130949079     0.005772059316640
    -0.019498890491904     0.011257689673586     0.118563000000000
1 40
     0.072722000000000     0.042568500000000    -0.001976000000000
     0.042568500006153     0.121875869871550     0.001140844132001
     0.028807492258392    -0.016632013408859    -0.237050500000000
1 41
    -3.127278500000001     1.266943500000000     0.846855000000000
     1.266943500183140    -1.664338158348171    -0.488931962249919
     0.837509571343640    -0.483536376429191    -1.529722500000000
1 42
    -0.008809000000000    -0.006634500000000     0.023146500000000
    -0.006634500000959    -0.016469860722431    -0.013363638006764
     0.008459084036194    -0.004883854445042     0.304075500000000
1 43
    -0.013799000000000     0.085858000000000    -0.043779000000000
     0.085858000012411     0.085341278831331     0.025275817436679
    -0.024130982963198     0.013932029508606     0.222364000000000
1 44
    -0.082152000000000     0.213997500000000    -0.041011500000000
     0.213997500030934     0.164951028479674     0.023678000566582
    -0.101723460983968     0.058730067577750    -0.040115500000000
2 1
     0.034208500000000     0.004016500000000    -0.005023000000000
     0.004016500000581     0.038846354712735     0.002900030402349
    -0.005139590192958     0.002967343781214    -0.343754000000000
2 2
     7.303771000000001    -1.968980500000000    -0.837103000000000
    -1.968980500284620     5.030188156427426     0.483301642424374
    -0.836030153496197     0.482682234136787     5.499696999999999
2 3
     0.000347000000000     0.145622500000000    -0.121442500000000
     0.145622500021050     0.168497379162286     0.070114860071129
    -0.134032038419298     0.077383433455823    -0.424685500000000
2 4
    -0.063537500000000     0.200164000000000     1.056292000000000
     0.200164000028934     0.167591978580850    -0.609850470586926
     0.772673390366186    -0.446103189891336    -0.880355000000000
2 5
    -0.018535500000000     0.001811000000000     0.013090500000000
    -0.001817111860985     0.016562971315567    -0.015930537303766
    -0.012959099330749    -0.015867754747265    -0.251953500000000
2 6
    -1.830548000000001    -0.146066000000000    -0.227362500000000
     0.146004660190954     0.329716585432548     0.115026360164367
     0.227360000117030     0.115039714007099     0.647078500000000
2 7
     0.007791000000000     0.013382500000000     0.020341500000000
     0.017010611863181    -0.009763528684433    -0.003371436897176
     0.007262329047771     0.019156786603416    -0.251953500000000
2 8
    -0.210323000000000     1.081442000000000    -0.213297000000000
     0.789371339944257    -1.290508414567453     0.139388520799987
     0.014052685277070    -0.254419392895099     0.647078500000000
2 9
     0.022888000000000    -0.184619500000000     0.318189000000000
    -0.179166469548632     0.042706072553461     0.077829703043733
     0.175644994044589     0.036752978278350    -0.180733500000000
2 10
    -0.119763500000000    -0.102147000000000    -0.119560000000000
    -0.096808312581586     0.185300263390759    -0.133788800538713
    -0.226480972640628    -0.236705247927494    -0.180788500000000
2 11
     0.096406500000000    -0.423292500000000    -0.105451000000000
    -0.423292500061188    -0.392369577677227     0.060882163240716
    -0.050363335333830     0.029077285210173     0.672897500000000
2 12
    -0.000545000000000    -0.017244000000000     0.013137000000000
    -0.017244000002493    -0.020456656085251    -0.007584650486892
     0.002326786058683    -0.001343370557230    -0.299765500000000
2 13
     0.195275500000000    -0.079638500000000     0.091692000000000
    -0.085091530489567    -0.129681427446539    -0.314474608746550
     0.055993484166205    -0.170489516018362    -0.180733500000000
2 14
     0.195184500000000     0.085027000000000     0.056084500000000
     0.079688312579111    -0.129647736609241     0.170436397553307
     0.091752271608806     0.314490899730164    -0.180788500000000
2 15
    -0.116898500000000    -0.103632500000000    -0.075428500000000
    -0.103632500014980    -0.236563003552237     0.043548664782717
    -0.059355537282217     0.034268935425306    -0.219122500000000
2 16
    -0.116811500000000    -0.103687000000000     0.059452000000000
    -0.103687000014988    -0.236538934731583    -0.034324628206342
     0.075384386825817    -0.043523196023435    -0.219177000000000
2 17
    -0.073671500000000    -0.005443000000000    -0.031897500000000
    -0.005443000000787    -0.079956535030853     0.018416030212807
     0.014619093710585    -0.008440337688505     0.188383000000000
2 18
    -0.440654000000000     0.121239500000000    -0.528466500000000
     0.121239500017525    -0.300658684067050     0.305110276054752
    -0.567657033890307     0.327736941300266    -1.759599000000000
2 19
    -0.560927000000000    -0.129538500000000    -0.293501000000000
    -0.269894294487168    -0.321546964747807    -0.285094985596174
    -0.452548763130437    -0.200128046828498    -0.643302500000000
2 20
    -0.039327000000000     0.028579500000000    -0.028409500000000
     0.012475111242913    -0.036138775813423    -0.021097822213387
    -0.056399697008854    -0.004109509013445     0.186112000000000
2 21
     0.066613000000000    -0.030161000000000    -0.011279000000000
     0.033014607907449    -0.014606802042442     0.033597744217380
     0.028301564449860    -0.027849929593867     0.114018000000000
2 22
     0.128487500000000    -0.003741000000000    -0.054696500000000
     0.004321701651863    -0.051753231745315    -0.002786581074445
     0.009675589375707     0.029986116403023    -0.051076500000000
2 23
    -0.208432500000000    -0.066381500000000     0.100149000000000
     0.073974294458846    -0.674041464747807     0.396726814852595
    -0.052958408989451     0.491982748708108    -0.643302500000000
2 24
    -0.054713000000000     0.003592000000000     0.004066500000000
     0.019696388761738    -0.020752775813423     0.035152259817286
    -0.024640909301445     0.050898324878605     0.186112000000000
2 25
     0.199096000000000    -0.100816000000000     0.026919500000000
    -0.100816000014573     0.082683710514344    -0.015541980572573
     0.002267655133169    -0.001309231301470    -0.060731000000000
2 26
     0.036219000000000    -0.021551000000000    -0.037923500000000
    -0.021551000003115     0.011334048695590     0.021895142935195
    -0.011537639113864     0.006661259047720     0.108492000000000
2 27
    -0.858327000000000     0.011532000000000     0.176966000000000
    -0.367389550579267    -0.216410119270955     0.131279636268633
     0.156731470228738     0.025217091001908    -0.257128500000000
2 28
     0.010222000000000     0.006309000000000     0.008198500000000
    -0.003595813132057    -0.016044874164352     0.006491437752103
     0.013549757725851    -0.002413407601997     0.130784500000000
2 29
     0.004462500000000    -0.002868000000000    -0.034736000000000
    -0.066043607912223     0.047543697957558    -0.007030971578699
     0.038269528748570    -0.010584908981717     0.114018000000000
2 30
    -0.006944500000000    -0.073870000000000    -0.024935000000000
    -0.081932701663082     0.083678768254685     0.048761849038742
    -0.021130943879879    -0.023372364396855    -0.051076500000000
2 31
     0.017271000000000     0.001906000000000    -0.014955000000000
     0.001906000000275     0.019471859226310     0.008634273276355
    -0.011313563968964     0.006531889202504     0.122403500000000
2 32
     0.073502500000000     0.010187500000000     0.074615500000000
     0.010187500001473     0.085266011735589    -0.043079279013832
     0.033825430055864    -0.019529121146797    -0.177796500000000
2 33
    -0.222798500000000    -0.000467000000000    -0.025208500000000
     0.378454550580866    -0.851938619270955    -0.218896869751510
     0.056527093695595    -0.148341980281715    -0.257128500000000
2 34
    -0.010653000000000    -0.015648000000000    -0.001522500000000
    -0.005743186869293     0.004830125835648    -0.010345828149491
     0.008864951156092    -0.010527730603865     0.130784500000000
2 35
    -0.018061500000000     0.016040500000000    -0.001459500000000
     0.018983191555674     0.006603437747560    -0.059915967565157
    -0.003588395902623    -0.006130198140690     0.164451500000000
2 36
    -0.134643500000000     0.060575000000000     0.058098000000000
     0.151843702112030     0.012815161508150     0.158285195111930
     0.039594014057648     0.059206065816476    -0.199963000000000
2 37
    -0.014728500000000     0.020907500000000     0.051159000000000
     0.017964808449667     0.003270437747560     0.031221947859493
     0.003514709369142     0.006172741080628     0.164451500000000
2 38
    -0.116029500000000     0.162590500000000    -0.108030000000000
     0.071321797920229    -0.005798838491850    -0.129456941468670
    -0.031476950030084    -0.063892454917481    -0.199963000000000
2 39
     0.072722000000000     0.042568500000000    -0.001976000000000
     0.042568500006153     0.121875869871550     0.001140844132001
     0.028807492258392    -0.016632013408859    -0.237050500000000
2 40
     0.004442000000000     0.002134000000000    -0.009997500000000
     0.002134000000308     0.006906130949079     0.005772059316640
    -0.019498890491904     0.011257689673586     0.118563000000000
2 41
    -0.008809000000000    -0.006634500000000     0.023146500000000
    -0.006634500000959    -0.016469860722431    -0.013363638006764
     0.008459084036194    -0.004883854445042     0.304075500000000
2 42
    -3.127278500000001     1.266943500000000     0.846855000000000
     1.266943500183140    -1.664338158348171    -0.488931962249919
     0.837509571343640    -0.483536376429191    -1.529722500000000
2 43
    -0.082152000000000     0.213997500000000    -0.041011500000000
     0.213997500030934     0.164951028479674     0.023678000566582
    -0.101723460983968     0.058730067577750    -0.040115500000000
2 44
    -0.013799000000000     0.085858000000000    -0.043779000000000
     0.085858000012411     0.085341278831331     0.025275817436679
    -0.024130982963198     0.013932029508606     0.222364000000000
3 1
    -0.063504688235668     0.200154673966260     0.772651000000000
     0.200154673995193     0.167614021569001    -0.446090262871875
     1.056473708216218    -0.609955379786310    -0.880525500000000
3 2
     0.000377356171323     0.145626750881423    -0.134041000000000
     0.145626750902474     0.168532643828677     0.077388607438040
    -0.121262804548735     0.070011112843841    -0.424623000000000
3 3
     2.751316000000000     0.000000000000000     0.000000000000000
    -0.000000000000000     2.751316000000000     0.000000000000000
    -0.000000000000000    -0.000000000000000    10.717788499999997
3 4
     0.024304000000000     0.000000000000000     0.000000000000000
     0.000000000000000     0.024304000000000     0.000000000000000
    -0.000000000000000    -0.000000000000000    -0.421069000000000
3 5
    -0.063504688235668    -0.200154673966260    -0.772651000000000
    -0.200154673995193     0.167614021569001    -0.446090262871875
    -1.056473708216218    -0.609955379786310    -0.880525500000000
3 6
     0.000377356171323    -0.145626750881423     0.134041000000000
    -0.145626750902474     0.168532643828677     0.077388607438040
     0.121262804548735     0.070011112843841    -0.424623000000000
3 7
     0.283173376471335    -0.000000000000000     0.000000000000000
    -0.000000000000000    -0.179064043138002     0.892180525743751
     0.000000000000000     1.219910759572620    -0.880525500000000
3 8
     0.252610287657354    -0.000000000000000    -0.000000000000000
     0.000000000000000    -0.083700287657354    -0.154777214876080
    -0.000000000000000    -0.140022225687681    -0.424623000000000
3 9
    -0.636759093115754     0.000000000000000    -0.000000000000000
    -0.000000000000000     0.340743759782421     0.058142636213213
     0.000000000000000     0.121656180981750     0.672898000000000
3 10
    -0.030407203686972     0.000000000000000    -0.000000000000000
     0.000000000000000     0.009365203686972    -0.002695071056772
    -0.000000000000000    -0.015501760696644    -0.299908000000000
3 11
    -0.168193000000000    -0.000000000000000     0.000000000000000
     0.000000000000000    -0.168193000000000     0.000000000000000
    -0.000000000000000    -0.000000000000000    -0.276449000000000
3 12
    -0.168196000000000    -0.000000000000000     0.000000000000000
     0.000000000000000    -0.168196000000000     0.000000000000000
    -0.000000000000000    -0.000000000000000    -0.276344500000000
3 13
     0.096368046557877     0.423271151410199    -0.050353000000000
     0.423271151471384    -0.392383379891210    -0.029071318106606
    -0.105357343265207    -0.060828090490875     0.672898000000000
3 14
    -0.000577898156514     0.017221957576504     0.002334000000000
     0.017221957578994    -0.020464101843486     0.001347535528386
     0.013424918567651     0.007750880348322    -0.299908000000000
3 15
     0.096368046557877    -0.423271151410199     0.050353000000000
    -0.423271151471384    -0.392383379891210    -0.029071318106606
     0.105357343265207    -0.060828090490875     0.672898000000000
3 16
    -0.000577898156514    -0.017221957576504    -0.002334000000000
    -0.017221957578994    -0.020464101843486     0.001347535528386
    -0.013424918567651     0.007750880348322    -0.299908000000000
3 17
    -0.164478944078705    -0.012950063395512     0.022542500000000
    -0.012950063397384    -0.179432389254629    -0.013014918444148
    -0.102416332129475     0.059130096920093    -0.444584500000000
3 18
     0.003842913051287    -0.006552774955240     0.011392000000000
    -0.006552774956188    -0.003723579717954    -0.006577174267084
     0.016323462080989    -0.009424355225885     0.152372500000000
3 19
    -0.079189549827845     0.000000000000000    -0.000000000000000
    -0.000000000000000    -0.994128450172155     0.718563794232382
     0.000000000000000     0.462216738595949    -0.737354000000000
3 20
    -0.031468700484859     0.000000000000000    -0.000000000000000
    -0.000000000000000    -0.004230632848474     0.034767455862843
     0.000000000000000     0.069940894477423     0.223244500000000
3 21
    -0.164478944078705     0.012950063395512    -0.022542500000000
     0.012950063397384    -0.179432389254629    -0.013014918444148
     0.102416332129475     0.059130096920093    -0.444584500000000
3 22
     0.003842913051287     0.006552774955240    -0.011392000000000
     0.006552774956188    -0.003723579717954    -0.006577174267084
    -0.016323462080989    -0.009424355225885     0.152372500000000
3 23
    -0.765393725086078    -0.396180165275751    -0.622294500000000
    -0.396180165333020    -0.307924274913922    -0.359281897116191
    -0.400291437707414    -0.231108369297974    -0.737354000000000
3 24
    -0.011040149757570     0.011794429260702    -0.030109500000000
     0.011794429262407    -0.024659183575763    -0.017383727931421
    -0.060570591385233    -0.034970447238711     0.223244500000000
3 25
    -0.765393725086078     0.396180165275751     0.622294500000000
     0.396180165333020    -0.307924274913922    -0.359281897116191
     0.400291437707414    -0.231108369297974    -0.737354000000000
3 26
    -0.011040149757570    -0.011794429260702     0.030109500000000
    -0.011794429262407    -0.024659183575763    -0.017383727931421
     0.060570591385233    -0.034970447238711     0.223244500000000
3 27
     0.128621650235003    -0.000000000000000     0.000000000000000
     0.000000000000000    -0.058314983568336     0.026711687556258
    -0.000000000000000    -0.061037401893824     0.032654000000000
3 28
     0.077427750375279    -0.000000000000000     0.000000000000000
    -0.000000000000000    -0.038791750375279    -0.001566928630694
    -0.000000000000000    -0.041211297772555     0.090675500000000
3 29
    -0.186909111842591     0.000000000000000     0.000000000000000
     0.000000000000000    -0.157002221490742     0.026029836888296
    -0.000000000000000    -0.118260193840186    -0.444584500000000
3 30
    -0.007506826102574     0.000000000000000     0.000000000000000
    -0.000000000000000     0.007626159435908     0.013154348534167
     0.000000000000000     0.018848710451769     0.152372500000000
3 31
     0.284427799827731    -0.199469552479906     0.186960500000000
    -0.199469552508740     0.054100200172269    -0.107941695010629
     0.209057044556500    -0.120699140941959    -0.176492500000000
3 32
     0.014105543519471    -0.008994326545855    -0.039814000000000
    -0.008994326547155     0.003719789813863     0.022986623619177
    -0.033875080510873     0.019557786850359     0.191970000000000
3 33
    -0.011580825117501    -0.080945936879969    -0.023133000000000
    -0.080945936891670     0.081887491784168    -0.013355843778129
     0.052859940624873     0.030518700946912     0.032654000000000
3 34
    -0.009736875187640    -0.050324520028927     0.001357000000000
    -0.050324520036202     0.048372875187640     0.000783464315347
     0.035690030796537     0.020605648886278     0.090675500000000
3 35
     0.284427799827732     0.199469552479906    -0.186960500000000
     0.199469552508740     0.054100200172269    -0.107941695010629
    -0.209057044556500    -0.120699140941959    -0.176492500000000
3 36
     0.014105543519471     0.008994326545855     0.039814000000000
     0.008994326547155     0.003719789813863     0.022986623619177
     0.033875080510873     0.019557786850359     0.191970000000000
3 37
    -0.061063599655463    -0.000000000000000    -0.000000000000000
     0.000000000000000     0.399591599655463     0.215883390021257
     0.000000000000000     0.241398281883919    -0.176492500000000
3 38
    -0.001473087038941    -0.000000000000000    -0.000000000000000
     0.000000000000000     0.019298420372274    -0.045973247238354
    -0.000000000000000    -0.039115573700718     0.191970000000000
3 39
    -0.011580825117501     0.080945936879969     0.023133000000000
     0.080945936891670     0.081887491784168    -0.013355843778129
    -0.052859940624873     0.030518700946912     0.032654000000000
3 40
    -0.009736875187640     0.050324520028927    -0.001357000000000
     0.050324520036202     0.048372875187640     0.000783464315347
    -0.035690030796537     0.020605648886278     0.090675500000000
3 41
    -0.912896000000000     0.000000000000000    -0.000000000000000
    -0.000000000000000    -0.912896000000000     0.000000000000000
    -0.000000000000000    -0.000000000000000    -5.168609999999999
3 42
    -0.098584000000000     0.000000000000000    -0.000000000000000
     0.000000000000000    -0.098584000000000    -0.000000000000000
    -0.000000000000000    -0.000000000000000     0.421596000000000
3 43
     0.111393000000000     0.000000000000000    -0.000000000000000
    -0.000000000000000     0.111393000000000     0.000000000000000
    -0.000000000000000    -0.000000000000000    -0.493513000000000
3 44
     0.008185000000000    -0.000000000000000    -0.000000000000000
     0.000000000000000     0.008185000000000     0.000000000000000
    -0.000000000000000    -0.000000000000000     0.295617500000000
4 1
     0.000377356171323     0.145626750881423    -0.134041000000000
     0.145626750902474     0.168532643828677     0.077388607438040
    -0.121262804548735     0.070011112843841    -0.424623000000000
4 2
    -0.063504688235668     0.200154673966260     0.772651000000000
     0.200154673995193     0.167614021569001    -0.446090262871875
     1.056473708216218    -0.609955379786310    -0.880525500000000
4 3
     0.024304000000000     0.000000000000000     0.000000000000000
     0.000000000000000     0.024304000000000     0.000000000000000
     0.000000000000000     0.000000000000000    -0.421069000000000
4 4
     2.751316000000000     0.000000000000000     0.000000000000000
     0.000000000000000     2.751316000000000     0.000000000000000
     0.000000000000000     0.000000000000000    10.717788499999997
4 5
     0.000377356171323    -0.145626750881423     0.134041000000000
    -0.145626750902474     0.168532643828677     0.077388607438040
     0.121262804548735     0.070011112843841    -0.424623000000000
4 6
    -0.063504688235668    -0.200154673966260    -0.772651000000000
    -0.200154673995193     0.167614021569001    -0.446090262871875
    -1.056473708216218    -0.609955379786310    -0.880525500000000
4 7
     0.252610287657354    -0.000000000000000    -0.000000000000000
     0.000000000000000    -0.083700287657354    -0.154777214876080
    -0.000000000000000    -0.140022225687681    -0.424623000000000
4 8
     0.283173376471335    -0.000000000000000     0.000000000000000
     0.000000000000000    -0.179064043138002     0.892180525743751
     0.000000000000000     1.219910759572620    -0.880525500000000
4 9
    -0.030407203686972     0.000000000000000    -0.000000000000000
    -0.000000000000000     0.009365203686972    -0.002695071056772
    -0.000000000000000    -0.015501760696644    -0.299908000000000
4 10
    -0.636759093115754     0.000000000000000    -0.000000000000000
    -0.000000000000000     0.340743759782421     0.058142636213213
     0.000000000000000     0.121656180981750     0.672898000000000
4 11
    -0.168196000000000    -0.000000000000000     0.000000000000000
    -0.000000000000000    -0.168196000000000     0.000000000000000
     0.000000000000000     0.000000000000000    -0.276344500000000
4 12
    -0.168193000000000    -0.000000000000000     0.000000000000000
    -0.000000000000000    -0.168193000000000     0.000000000000000
     0.000000000000000     0.000000000000000    -0.276449000000000
4 13
    -0.000577898156514     0.017221957576504     0.002334000000000
     0.017221957578994    -0.020464101843486     0.001347535528386
     0.013424918567651     0.007750880348322    -0.299908000000000
4 14
     0.096368046557877     0.423271151410199    -0.050353000000000
     0.423271151471384    -0.392383379891210    -0.029071318106606