phonopy:
  version: "2.21.2"
  frequency_unit_conversion_factor: 15.633302
  symmetry_tolerance: 1.00000e-05
  configuration:
    force_constants: "WRITE"
    dim: "1 0 0 0 1 0 0 0 2"
    full_force_constants: ".TRUE."

physical_unit:
  atomic_mass: "AMU"
  length: "angstrom"
  force_constants: "eV/angstrom^2"

space_group:
  type: "P6_3mc"
  number: 186
  Hall_symbol: "P 6c -2c"

supercell_matrix:
- [   1,   0,   0 ]
- [   0,   1,   0 ]
- [   0,   0,   2 ]

primitive_cell:
  lattice:
  - [     9.201717820000001,     0.000000000000000,     0.000000000000000 ] # a
  - [    -4.600858910000000,     7.968921390000000,     0.000000000000000 ] # b
  - [     0.000000000000000,     0.000000000000000,     7.000537620000000 ] # c
  points:
  - symbol: Yb # 1
    coordinates: [  0.202855310000000,  0.797144690000000,  0.996769110000000 ]
    mass: 173.054000
  - symbol: Yb # 2
    coordinates: [  0.333333330000000,  0.666666670000000,  0.588956230000000 ]
    mass: 173.054000
  - symbol: Yb # 3
    coordinates: [  0.594289390000000,  0.797144690000000,  0.996769110000000 ]
    mass: 173.054000
  - symbol: Yb # 4
    coordinates: [  0.202855310000000,  0.405710610000000,  0.996769110000000 ]
    mass: 173.054000
  - symbol: Yb # 5
    coordinates: [  0.797144690000000,  0.594289390000000,  0.496769110000000 ]
    mass: 173.054000
  - symbol: Yb # 6
    coordinates: [  0.666666670000000,  0.333333330000000,  0.088956230000000 ]
    mass: 173.054000
  - symbol: Yb # 7
    coordinates: [  0.405710610000000,  0.202855310000000,  0.496769110000000 ]
    mass: 173.054000
  - symbol: Yb # 8
    coordinates: [  0.797144690000000,  0.202855310000000,  0.496769110000000 ]
    mass: 173.054000
  - symbol: Br # 9
    coordinates: [  0.136367300000000,  0.863632700000000,  0.615749680000000 ]
    mass: 79.904000
  - symbol: Br # 10
    coordinates: [  0.464770200000000,  0.929540410000000,  0.295074940000000 ]
    mass: 79.904000
  - symbol: Br # 11
    coordinates: [  0.727265410000000,  0.863632700000000,  0.615749680000000 ]
    mass: 79.904000
  - symbol: Br # 12
    coordinates: [  0.070459590000000,  0.535229800000000,  0.295074940000000 ]
    mass: 79.904000
  - symbol: Br # 13
    coordinates: [  0.464770200000000,  0.535229800000000,  0.295074940000000 ]
    mass: 79.904000
  - symbol: Br # 14
    coordinates: [  0.863632700000000,  0.727265410000000,  0.115749680000000 ]
    mass: 79.904000
  - symbol: Br # 15
    coordinates: [  0.136367300000000,  0.272734590000000,  0.615749680000000 ]
    mass: 79.904000
  - symbol: Br # 16
    coordinates: [  0.535229800000000,  0.464770200000000,  0.795074940000000 ]
    mass: 79.904000
  - symbol: Br # 17
    coordinates: [  0.272734590000000,  0.136367300000000,  0.115749680000000 ]
    mass: 79.904000
  - symbol: Br # 18
    coordinates: [  0.929540410000000,  0.464770200000000,  0.795074940000000 ]
    mass: 79.904000
  - symbol: Br # 19
    coordinates: [  0.535229800000000,  0.070459590000000,  0.795074940000000 ]
    mass: 79.904000
  - symbol: Br # 20
    coordinates: [  0.863632700000000,  0.136367300000000,  0.115749680000000 ]
    mass: 79.904000
  - symbol: O  # 21
    coordinates: [  0.333333330000000,  0.666666670000000,  0.898946550000000 ]
    mass: 15.999400
  - symbol: O  # 22
    coordinates: [  0.666666670000000,  0.333333330000000,  0.398946550000000 ]
    mass: 15.999400
  reciprocal_lattice: # without 2pi
  - [     0.108675360357877,     0.062743748561435,     0.000000000000000 ] # a*
  - [     0.000000000000000,     0.125487497122870,     0.000000000000000 ] # b*
  - [     0.000000000000000,     0.000000000000000,     0.142846171863012 ] # c*

unit_cell:
  lattice:
  - [     9.201717820000001,     0.000000000000000,     0.000000000000000 ] # a
  - [    -4.600858910000000,     7.968921390000000,     0.000000000000000 ] # b
  - [     0.000000000000000,     0.000000000000000,     7.000537620000000 ] # c
  points:
  - symbol: Yb # 1
    coordinates: [  0.202855310000000,  0.797144690000000,  0.996769110000000 ]
    mass: 173.054000
    reduced_to: 1
  - symbol: Yb # 2
    coordinates: [  0.333333330000000,  0.666666670000000,  0.588956230000000 ]
    mass: 173.054000
    reduced_to: 2
  - symbol: Yb # 3
    coordinates: [  0.594289390000000,  0.797144690000000,  0.996769110000000 ]
    mass: 173.054000
    reduced_to: 3
  - symbol: Yb # 4
    coordinates: [  0.202855310000000,  0.405710610000000,  0.996769110000000 ]
    mass: 173.054000
    reduced_to: 4
  - symbol: Yb # 5
    coordinates: [  0.797144690000000,  0.594289390000000,  0.496769110000000 ]
    mass: 173.054000
    reduced_to: 5
  - symbol: Yb # 6
    coordinates: [  0.666666670000000,  0.333333330000000,  0.088956230000000 ]
    mass: 173.054000
    reduced_to: 6
  - symbol: Yb # 7
    coordinates: [  0.405710610000000,  0.202855310000000,  0.496769110000000 ]
    mass: 173.054000
    reduced_to: 7
  - symbol: Yb # 8
    coordinates: [  0.797144690000000,  0.202855310000000,  0.496769110000000 ]
    mass: 173.054000
    reduced_to: 8
  - symbol: Br # 9
    coordinates: [  0.136367300000000,  0.863632700000000,  0.615749680000000 ]
    mass: 79.904000
    reduced_to: 9
  - symbol: Br # 10
    coordinates: [  0.464770200000000,  0.929540410000000,  0.295074940000000 ]
    mass: 79.904000
    reduced_to: 10
  - symbol: Br # 11
    coordinates: [  0.727265410000000,  0.863632700000000,  0.615749680000000 ]
    mass: 79.904000
    reduced_to: 11
  - symbol: Br # 12
    coordinates: [  0.070459590000000,  0.535229800000000,  0.295074940000000 ]
    mass: 79.904000
    reduced_to: 12
  - symbol: Br # 13
    coordinates: [  0.464770200000000,  0.535229800000000,  0.295074940000000 ]
    mass: 79.904000
    reduced_to: 13
  - symbol: Br # 14
    coordinates: [  0.863632700000000,  0.727265410000000,  0.115749680000000 ]
    mass: 79.904000
    reduced_to: 14
  - symbol: Br # 15
    coordinates: [  0.136367300000000,  0.272734590000000,  0.615749680000000 ]
    mass: 79.904000
    reduced_to: 15
  - symbol: Br # 16
    coordinates: [  0.535229800000000,  0.464770200000000,  0.795074940000000 ]
    mass: 79.904000
    reduced_to: 16
  - symbol: Br # 17
    coordinates: [  0.272734590000000,  0.136367300000000,  0.115749680000000 ]
    mass: 79.904000
    reduced_to: 17
  - symbol: Br # 18
    coordinates: [  0.929540410000000,  0.464770200000000,  0.795074940000000 ]
    mass: 79.904000
    reduced_to: 18
  - symbol: Br # 19
    coordinates: [  0.535229800000000,  0.070459590000000,  0.795074940000000 ]
    mass: 79.904000
    reduced_to: 19
  - symbol: Br # 20
    coordinates: [  0.863632700000000,  0.136367300000000,  0.115749680000000 ]
    mass: 79.904000
    reduced_to: 20
  - symbol: O  # 21
    coordinates: [  0.333333330000000,  0.666666670000000,  0.898946550000000 ]
    mass: 15.999400
    reduced_to: 21
  - symbol: O  # 22
    coordinates: [  0.666666670000000,  0.333333330000000,  0.398946550000000 ]
    mass: 15.999400
    reduced_to: 22

supercell:
  lattice:
  - [     9.201717820000001,     0.000000000000000,     0.000000000000000 ] # a
  - [    -4.600858910000000,     7.968921390000000,     0.000000000000000 ] # b
  - [     0.000000000000000,     0.000000000000000,    14.001075240000000 ] # c
  points:
  - symbol: Yb # 1
    coordinates: [  0.202855310000000,  0.797144690000000,  0.498384555000000 ]
    mass: 173.054000
    reduced_to: 1
  - symbol: Yb # 2
    coordinates: [  0.202855310000000,  0.797144690000000,  0.998384555000000 ]
    mass: 173.054000
    reduced_to: 1
  - symbol: Yb # 3
    coordinates: [  0.333333330000000,  0.666666670000000,  0.294478115000000 ]
    mass: 173.054000
    reduced_to: 3
  - symbol: Yb # 4
    coordinates: [  0.333333330000000,  0.666666670000000,  0.794478115000000 ]
    mass: 173.054000
    reduced_to: 3
  - symbol: Yb # 5
    coordinates: [  0.594289390000000,  0.797144690000000,  0.498384555000000 ]
    mass: 173.054000
    reduced_to: 5
  - symbol: Yb # 6
    coordinates: [  0.594289390000000,  0.797144690000000,  0.998384555000000 ]
    mass: 173.054000
    reduced_to: 5
  - symbol: Yb # 7
    coordinates: [  0.202855310000000,  0.405710610000000,  0.498384555000000 ]
    mass: 173.054000
    reduced_to: 7
  - symbol: Yb # 8
    coordinates: [  0.202855310000000,  0.405710610000000,  0.998384555000000 ]
    mass: 173.054000
    reduced_to: 7
  - symbol: Yb # 9
    coordinates: [  0.797144690000000,  0.594289390000000,  0.248384555000000 ]
    mass: 173.054000
    reduced_to: 9
  - symbol: Yb # 10
    coordinates: [  0.797144690000000,  0.594289390000000,  0.748384555000000 ]
    mass: 173.054000
    reduced_to: 9
  - symbol: Yb # 11
    coordinates: [  0.666666670000000,  0.333333330000000,  0.044478115000000 ]
    mass: 173.054000
    reduced_to: 11
  - symbol: Yb # 12
    coordinates: [  0.666666670000000,  0.333333330000000,  0.544478115000000 ]
    mass: 173.054000
    reduced_to: 11
  - symbol: Yb # 13
    coordinates: [  0.405710610000000,  0.202855310000000,  0.248384555000000 ]
    mass: 173.054000
    reduced_to: 13
  - symbol: Yb # 14
    coordinates: [  0.405710610000000,  0.202855310000000,  0.748384555000000 ]
    mass: 173.054000
    reduced_to: 13
  - symbol: Yb # 15
    coordinates: [  0.797144690000000,  0.202855310000000,  0.248384555000000 ]
    mass: 173.054000
    reduced_to: 15
  - symbol: Yb # 16
    coordinates: [  0.797144690000000,  0.202855310000000,  0.748384555000000 ]
    mass: 173.054000
    reduced_to: 15
  - symbol: Br # 17
    coordinates: [  0.136367300000000,  0.863632700000000,  0.307874840000000 ]
    mass: 79.904000
    reduced_to: 17
  - symbol: Br # 18
    coordinates: [  0.136367300000000,  0.863632700000000,  0.807874840000000 ]
    mass: 79.904000
    reduced_to: 17
  - symbol: Br # 19
    coordinates: [  0.464770200000000,  0.929540410000000,  0.147537470000000 ]
    mass: 79.904000
    reduced_to: 19
  - symbol: Br # 20
    coordinates: [  0.464770200000000,  0.929540410000000,  0.647537470000000 ]
    mass: 79.904000
    reduced_to: 19
  - symbol: Br # 21
    coordinates: [  0.727265410000000,  0.863632700000000,  0.307874840000000 ]
    mass: 79.904000
    reduced_to: 21
  - symbol: Br # 22
    coordinates: [  0.727265410000000,  0.863632700000000,  0.807874840000000 ]
    mass: 79.904000
    reduced_to: 21
  - symbol: Br # 23
    coordinates: [  0.070459590000000,  0.535229800000000,  0.147537470000000 ]
    mass: 79.904000
    reduced_to: 23
  - symbol: Br # 24
    coordinates: [  0.070459590000000,  0.535229800000000,  0.647537470000000 ]
    mass: 79.904000
    reduced_to: 23
  - symbol: Br # 25
    coordinates: [  0.464770200000000,  0.535229800000000,  0.147537470000000 ]
    mass: 79.904000
    reduced_to: 25
  - symbol: Br # 26
    coordinates: [  0.464770200000000,  0.535229800000000,  0.647537470000000 ]
    mass: 79.904000
    reduced_to: 25
  - symbol: Br # 27
    coordinates: [  0.863632700000000,  0.727265410000000,  0.057874840000000 ]
    mass: 79.904000
    reduced_to: 27
  - symbol: Br # 28
    coordinates: [  0.863632700000000,  0.727265410000000,  0.557874840000000 ]
    mass: 79.904000
    reduced_to: 27
  - symbol: Br # 29
    coordinates: [  0.136367300000000,  0.272734590000000,  0.307874840000000 ]
    mass: 79.904000
    reduced_to: 29
  - symbol: Br # 30
    coordinates: [  0.136367300000000,  0.272734590000000,  0.807874840000000 ]
    mass: 79.904000
    reduced_to: 29
  - symbol: Br # 31
    coordinates: [  0.535229800000000,  0.464770200000000,  0.397537470000000 ]
    mass: 79.904000
    reduced_to: 31
  - symbol: Br # 32
    coordinates: [  0.535229800000000,  0.464770200000000,  0.897537470000000 ]
    mass: 79.904000
    reduced_to: 31
  - symbol: Br # 33
    coordinates: [  0.272734590000000,  0.136367300000000,  0.057874840000000 ]
    mass: 79.904000
    reduced_to: 33
  - symbol: Br # 34
    coordinates: [  0.272734590000000,  0.136367300000000,  0.557874840000000 ]
    mass: 79.904000
    reduced_to: 33
  - symbol: Br # 35
    coordinates: [  0.929540410000000,  0.464770200000000,  0.397537470000000 ]
    mass: 79.904000
    reduced_to: 35
  - symbol: Br # 36
    coordinates: [  0.929540410000000,  0.464770200000000,  0.897537470000000 ]
    mass: 79.904000
    reduced_to: 35
  - symbol: Br # 37
    coordinates: [  0.535229800000000,  0.070459590000000,  0.397537470000000 ]
    mass: 79.904000
    reduced_to: 37
  - symbol: Br # 38
    coordinates: [  0.535229800000000,  0.070459590000000,  0.897537470000000 ]
    mass: 79.904000
    reduced_to: 37
  - symbol: Br # 39
    coordinates: [  0.863632700000000,  0.136367300000000,  0.057874840000000 ]
    mass: 79.904000
    reduced_to: 39
  - symbol: Br # 40
    coordinates: [  0.863632700000000,  0.136367300000000,  0.557874840000000 ]
    mass: 79.904000
    reduced_to: 39
  - symbol: O  # 41
    coordinates: [  0.333333330000000,  0.666666670000000,  0.449473275000000 ]
    mass: 15.999400
    reduced_to: 41
  - symbol: O  # 42
    coordinates: [  0.333333330000000,  0.666666670000000,  0.949473275000000 ]
    mass: 15.999400
    reduced_to: 41
  - symbol: O  # 43
    coordinates: [  0.666666670000000,  0.333333330000000,  0.199473275000000 ]
    mass: 15.999400
    reduced_to: 43
  - symbol: O  # 44
    coordinates: [  0.666666670000000,  0.333333330000000,  0.699473275000000 ]
    mass: 15.999400
    reduced_to: 43
