# epsilon and Z* of atoms 1 5 7
   7.48741723    0.00000000    0.00000000    0.00000000    7.48741723    0.00000000    0.00000000    0.00000000    6.90326131 
   3.55308544    0.00000000    0.00000000    0.00000000    3.55308544    0.00000000    0.00000000    0.00000000    4.61455243 
  -1.92549309   -0.00000000    0.00000000   -0.00000000   -1.92549309    0.00000000    0.00000000    0.00000000   -2.43663434 
  -2.59033889    0.00000000    0.00000000   -0.00000000   -2.59033889   -0.00000000    0.00000000    0.00000000   -3.39623526 
