natom:   90
displacements:
- atom:    1
  displacement:
    [   0.0100000000000000,  0.0000000000000000,  0.0000000000000000 ]
- atom:    1
  displacement:
    [   0.0000000000000000,  0.0000000000000000,  0.0100000000000000 ]
- atom:    1
  displacement:
    [   0.0000000000000000,  0.0000000000000000, -0.0100000000000000 ]
- atom:   37
  displacement:
    [   0.0100000000000000,  0.0000000000000000,  0.0000000000000000 ]
- atom:   37
  displacement:
    [   0.0000000000000000,  0.0000000000000000,  0.0100000000000000 ]
- atom:   55
  displacement:
    [   0.0100000000000000,  0.0000000000000000,  0.0000000000000000 ]
- atom:   55
  displacement:
    [   0.0000000000000000,  0.0000000000000000,  0.0100000000000000 ]
- atom:   55
  displacement:
    [   0.0000000000000000,  0.0000000000000000, -0.0100000000000000 ]
lattice:
- [    11.4583258499999996,     0.0000000000000000,     0.0000000000000000 ] # a
- [    -5.7291629400000001,     9.9232012800000007,     0.0000000000000000 ] # b
- [     0.0000000000000000,     0.0000000000000000,    14.1491119500000000 ] # c
atoms:
- symbol: Er # 1
  position: [  0.2222222233333333,  0.1111111100000000,  0.9025752900000000 ]
  mass: 167.259000
- symbol: Er # 2
  position: [  0.5555555566666667,  0.1111111100000000,  0.9025752900000000 ]
  mass: 167.259000
- symbol: Er # 3
  position: [  0.8888888900000000,  0.1111111100000000,  0.9025752900000000 ]
  mass: 167.259000
- symbol: Er # 4
  position: [  0.2222222233333333,  0.4444444433333333,  0.9025752900000000 ]
  mass: 167.259000
- symbol: Er # 5
  position: [  0.5555555566666667,  0.4444444433333333,  0.9025752900000000 ]
  mass: 167.259000
- symbol: Er # 6
  position: [  0.8888888900000000,  0.4444444433333333,  0.9025752900000000 ]
  mass: 167.259000
- symbol: Er # 7
  position: [  0.2222222233333333,  0.7777777766666666,  0.9025752900000000 ]
  mass: 167.259000
- symbol: Er # 8
  position: [  0.5555555566666667,  0.7777777766666666,  0.9025752900000000 ]
  mass: 167.259000
- symbol: Er # 9
  position: [  0.8888888900000000,  0.7777777766666666,  0.9025752900000000 ]
  mass: 167.259000
- symbol: Er # 10
  position: [  0.2222222233333333,  0.1111111100000000,  0.5974247100000000 ]
  mass: 167.259000
- symbol: Er # 11
  position: [  0.5555555566666667,  0.1111111100000000,  0.5974247100000000 ]
  mass: 167.259000
- symbol: Er # 12
  position: [  0.8888888900000000,  0.1111111100000000,  0.5974247100000000 ]
  mass: 167.259000
- symbol: Er # 13
  position: [  0.2222222233333333,  0.4444444433333333,  0.5974247100000000 ]
  mass: 167.259000
- symbol: Er # 14
  position: [  0.5555555566666667,  0.4444444433333333,  0.5974247100000000 ]
  mass: 167.259000
- symbol: Er # 15
  position: [  0.8888888900000000,  0.4444444433333333,  0.5974247100000000 ]
  mass: 167.259000
- symbol: Er # 16
  position: [  0.2222222233333333,  0.7777777766666666,  0.5974247100000000 ]
  mass: 167.259000
- symbol: Er # 17
  position: [  0.5555555566666667,  0.7777777766666666,  0.5974247100000000 ]
  mass: 167.259000
- symbol: Er # 18
  position: [  0.8888888900000000,  0.7777777766666666,  0.5974247100000000 ]
  mass: 167.259000
- symbol: Er # 19
  position: [  0.1111111100000000,  0.2222222233333333,  0.4025752900000000 ]
  mass: 167.259000
- symbol: Er # 20
  position: [  0.4444444433333333,  0.2222222233333333,  0.4025752900000000 ]
  mass: 167.259000
- symbol: Er # 21
  position: [  0.7777777766666666,  0.2222222233333333,  0.4025752900000000 ]
  mass: 167.259000
- symbol: Er # 22
  position: [  0.1111111100000000,  0.5555555566666667,  0.4025752900000000 ]
  mass: 167.259000
- symbol: Er # 23
  position: [  0.4444444433333333,  0.5555555566666667,  0.4025752900000000 ]
  mass: 167.259000
- symbol: Er # 24
  position: [  0.7777777766666666,  0.5555555566666667,  0.4025752900000000 ]
  mass: 167.259000
- symbol: Er # 25
  position: [  0.1111111100000000,  0.8888888900000000,  0.4025752900000000 ]
  mass: 167.259000
- symbol: Er # 26
  position: [  0.4444444433333333,  0.8888888900000000,  0.4025752900000000 ]
  mass: 167.259000
- symbol: Er # 27
  position: [  0.7777777766666666,  0.8888888900000000,  0.4025752900000000 ]
  mass: 167.259000
- symbol: Er # 28
  position: [  0.1111111100000000,  0.2222222233333333,  0.0974247100000000 ]
  mass: 167.259000
- symbol: Er # 29
  position: [  0.4444444433333333,  0.2222222233333333,  0.0974247100000000 ]
  mass: 167.259000
- symbol: Er # 30
  position: [  0.7777777766666666,  0.2222222233333333,  0.0974247100000000 ]
  mass: 167.259000
- symbol: Er # 31
  position: [  0.1111111100000000,  0.5555555566666667,  0.0974247100000000 ]
  mass: 167.259000
- symbol: Er # 32
  position: [  0.4444444433333333,  0.5555555566666667,  0.0974247100000000 ]
  mass: 167.259000
- symbol: Er # 33
  position: [  0.7777777766666666,  0.5555555566666667,  0.0974247100000000 ]
  mass: 167.259000
- symbol: Er # 34
  position: [  0.1111111100000000,  0.8888888900000000,  0.0974247100000000 ]
  mass: 167.259000
- symbol: Er # 35
  position: [  0.4444444433333333,  0.8888888900000000,  0.0974247100000000 ]
  mass: 167.259000
- symbol: Er # 36
  position: [  0.7777777766666666,  0.8888888900000000,  0.0974247100000000 ]
  mass: 167.259000
- symbol: Te # 37
  position: [  0.0000000000000000,  0.0000000000000000,  0.2500000000000000 ]
  mass: 127.600000
- symbol: Te # 38
  position: [  0.3333333333333333,  0.0000000000000000,  0.2500000000000000 ]
  mass: 127.600000
- symbol: Te # 39
  position: [  0.6666666666666666,  0.0000000000000000,  0.2500000000000000 ]
  mass: 127.600000
- symbol: Te # 40
  position: [  0.0000000000000000,  0.3333333333333333,  0.2500000000000000 ]
  mass: 127.600000
- symbol: Te # 41
  position: [  0.3333333333333333,  0.3333333333333333,  0.2500000000000000 ]
  mass: 127.600000
- symbol: Te # 42
  position: [  0.6666666666666666,  0.3333333333333333,  0.2500000000000000 ]
  mass: 127.600000
- symbol: Te # 43
  position: [  0.0000000000000000,  0.6666666666666666,  0.2500000000000000 ]
  mass: 127.600000
- symbol: Te # 44
  position: [  0.3333333333333333,  0.6666666666666666,  0.2500000000000000 ]
  mass: 127.600000
- symbol: Te # 45
  position: [  0.6666666666666666,  0.6666666666666666,  0.2500000000000000 ]
  mass: 127.600000
- symbol: Te # 46
  position: [  0.0000000000000000,  0.0000000000000000,  0.7500000000000000 ]
  mass: 127.600000
- symbol: Te # 47
  position: [  0.3333333333333333,  0.0000000000000000,  0.7500000000000000 ]
  mass: 127.600000
- symbol: Te # 48
  position: [  0.6666666666666666,  0.0000000000000000,  0.7500000000000000 ]
  mass: 127.600000
- symbol: Te # 49
  position: [  0.0000000000000000,  0.3333333333333333,  0.7500000000000000 ]
  mass: 127.600000
- symbol: Te # 50
  position: [  0.3333333333333333,  0.3333333333333333,  0.7500000000000000 ]
  mass: 127.600000
- symbol: Te # 51
  position: [  0.6666666666666666,  0.3333333333333333,  0.7500000000000000 ]
  mass: 127.600000
- symbol: Te # 52
  position: [  0.0000000000000000,  0.6666666666666666,  0.7500000000000000 ]
  mass: 127.600000
- symbol: Te # 53
  position: [  0.3333333333333333,  0.6666666666666666,  0.7500000000000000 ]
  mass: 127.600000
- symbol: Te # 54
  position: [  0.6666666666666666,  0.6666666666666666,  0.7500000000000000 ]
  mass: 127.600000
- symbol: O  # 55
  position: [  0.2222222233333333,  0.1111111100000000,  0.0602300500000000 ]
  mass: 15.999400
- symbol: O  # 56
  position: [  0.5555555566666667,  0.1111111100000000,  0.0602300500000000 ]
  mass: 15.999400
- symbol: O  # 57
  position: [  0.8888888900000000,  0.1111111100000000,  0.0602300500000000 ]
  mass: 15.999400
- symbol: O  # 58
  position: [  0.2222222233333333,  0.4444444433333333,  0.0602300500000000 ]
  mass: 15.999400
- symbol: O  # 59
  position: [  0.5555555566666667,  0.4444444433333333,  0.0602300500000000 ]
  mass: 15.999400
- symbol: O  # 60
  position: [  0.8888888900000000,  0.4444444433333333,  0.0602300500000000 ]
  mass: 15.999400
- symbol: O  # 61
  position: [  0.2222222233333333,  0.7777777766666666,  0.0602300500000000 ]
  mass: 15.999400
- symbol: O  # 62
  position: [  0.5555555566666667,  0.7777777766666666,  0.0602300500000000 ]
  mass: 15.999400
- symbol: O  # 63
  position: [  0.8888888900000000,  0.7777777766666666,  0.0602300500000000 ]
  mass: 15.999400
- symbol: O  # 64
  position: [  0.2222222233333333,  0.1111111100000000,  0.4397699500000000 ]
  mass: 15.999400
- symbol: O  # 65
  position: [  0.5555555566666667,  0.1111111100000000,  0.4397699500000000 ]
  mass: 15.999400
- symbol: O  # 66
  position: [  0.8888888900000000,  0.1111111100000000,  0.4397699500000000 ]
  mass: 15.999400
- symbol: O  # 67
  position: [  0.2222222233333333,  0.4444444433333333,  0.4397699500000000 ]
  mass: 15.999400
- symbol: O  # 68
  position: [  0.5555555566666667,  0.4444444433333333,  0.4397699500000000 ]
  mass: 15.999400
- symbol: O  # 69
  position: [  0.8888888900000000,  0.4444444433333333,  0.4397699500000000 ]
  mass: 15.999400
- symbol: O  # 70
  position: [  0.2222222233333333,  0.7777777766666666,  0.4397699500000000 ]
  mass: 15.999400
- symbol: O  # 71
  position: [  0.5555555566666667,  0.7777777766666666,  0.4397699500000000 ]
  mass: 15.999400
- symbol: O  # 72
  position: [  0.8888888900000000,  0.7777777766666666,  0.4397699500000000 ]
  mass: 15.999400
- symbol: O  # 73
  position: [  0.1111111100000000,  0.2222222233333333,  0.9397699500000000 ]
  mass: 15.999400
- symbol: O  # 74
  position: [  0.4444444433333333,  0.2222222233333333,  0.9397699500000000 ]
  mass: 15.999400
- symbol: O  # 75
  position: [  0.7777777766666666,  0.2222222233333333,  0.9397699500000000 ]
  mass: 15.999400
- symbol: O  # 76
  position: [  0.1111111100000000,  0.5555555566666667,  0.9397699500000000 ]
  mass: 15.999400
- symbol: O  # 77
  position: [  0.4444444433333333,  0.5555555566666667,  0.9397699500000000 ]
  mass: 15.999400
- symbol: O  # 78
  position: [  0.7777777766666666,  0.5555555566666667,  0.9397699500000000 ]
  mass: 15.999400
- symbol: O  # 79
  position: [  0.1111111100000000,  0.8888888900000000,  0.9397699500000000 ]
  mass: 15.999400
- symbol: O  # 80
  position: [  0.4444444433333333,  0.8888888900000000,  0.9397699500000000 ]
  mass: 15.999400
- symbol: O  # 81
  position: [  0.7777777766666666,  0.8888888900000000,  0.9397699500000000 ]
  mass: 15.999400
- symbol: O  # 82
  position: [  0.1111111100000000,  0.2222222233333333,  0.5602300500000000 ]
  mass: 15.999400
- symbol: O  # 83
  position: [  0.4444444433333333,  0.2222222233333333,  0.5602300500000000 ]
  mass: 15.999400
- symbol: O  # 84
  position: [  0.7777777766666666,  0.2222222233333333,  0.5602300500000000 ]
  mass: 15.999400
- symbol: O  # 85
  position: [  0.1111111100000000,  0.5555555566666667,  0.5602300500000000 ]
  mass: 15.999400
- symbol: O  # 86
  position: [  0.4444444433333333,  0.5555555566666667,  0.5602300500000000 ]
  mass: 15.999400
- symbol: O  # 87
  position: [  0.7777777766666666,  0.5555555566666667,  0.5602300500000000 ]
  mass: 15.999400
- symbol: O  # 88
  position: [  0.1111111100000000,  0.8888888900000000,  0.5602300500000000 ]
  mass: 15.999400
- symbol: O  # 89
  position: [  0.4444444433333333,  0.8888888900000000,  0.5602300500000000 ]
  mass: 15.999400
- symbol: O  # 90
  position: [  0.7777777766666666,  0.8888888900000000,  0.5602300500000000 ]
  mass: 15.999400