  90   90
1 1
    11.922551000107420    -0.000000000000001     0.000000000000000
    -0.000000000000001    11.922551000107427     0.000000000000000
    -0.000000000000000    -0.000000000000000    13.226942499999998
1 2
    -1.930043977016677     0.319660443427400     0.231055666666667
    -0.318840559848748     0.622443310346366     0.312269130759674
    -0.230797812453620     0.314279337972321     0.747534000000000
1 3
    -1.930043976050273    -0.319660443427400    -0.231055666666667
     0.318840552132023     0.622443309379962     0.312269130061143
     0.230797811503485     0.314279337972321     0.747534000000000
1 4
    -0.015323492467070     1.424304945723572    -0.385960833333333
     0.785803946218918    -1.292277174203242     0.043965511050361
    -0.156774983791140    -0.357016437479943     0.747534000000000
1 5
    -0.015323488161085    -1.424304945723572     0.385960833333333
    -0.785803942358408    -1.292277178509227     0.043965512217205
     0.156774984870478    -0.357016437479943     0.747534000000000
1 6
    -0.221915000000289     0.000000000000000     0.000000000000000
     0.000000000000000    -0.221915000000289     0.000000000000000
    -0.000000000000000    -0.000000000000000     0.329034000000000
1 7
    -0.016033534346362     0.786213889150971    -0.154905166666667
     1.424714888477494    -1.291567132323950    -0.356234642278348
    -0.387572796373964     0.042737099507622     0.747534000000000
1 8
    -0.220329000000041     0.000000000000000     0.000000000000000
     0.000000000000000    -0.220329000000041     0.000000000000000
    -0.000000000000000    -0.000000000000000     0.327034500000000
1 9
    -0.016033531969466    -0.786213889150971     0.154905166666667
    -1.424714884621278    -1.291567134700846    -0.356234641810036
     0.387572796244760     0.042737099507622     0.747534000000000
1 10
     0.704867000000840    -0.000000000000000    -0.000000000000000
    -0.000000000000000     0.704867000000841    -0.000000000000000
    -0.000000000000000    -0.000000000000000    -0.986946000000000
1 11
    -0.320301110701780    -0.126720589317304     0.246302333333333
     0.126734076342239     0.192862110702274    -0.140617699012318
     0.244957091765499     0.140000900439106    -0.409796500000000
1 12
    -0.320301111084884     0.126720589317304    -0.246302333333333
    -0.126734077893644     0.192862111085378    -0.140617699756944
    -0.244957092188753     0.140000900439106    -0.409796500000000
1 13
     0.064577145791915     0.095475488039304    -0.001372666666667
     0.348930154456680    -0.192016145791421     0.283612927173539
    -0.243722882425684     0.142138614463487    -0.409796500000000
1 14
     0.064577146080558    -0.095475488039304     0.001372666666667
    -0.348930153680942    -0.192016146080064     0.283612927177689
     0.243722881995968     0.142138614463487    -0.409796500000000
1 15
    -0.106207000003170     0.000000000000000    -0.000000000000000
     0.000000000000000    -0.106207000003170     0.000000000000000
    -0.000000000000000    -0.000000000000000    -0.173437000000000
1 16
     0.064565464430381     0.348936898722001     0.244929666666667
     0.095482232268813    -0.192004464429887    -0.142995227420745
     0.001234210192784    -0.282139514902593    -0.409796500000000
1 17
    -0.106047999999872     0.000000000000000    -0.000000000000000
     0.000000000000000    -0.106047999999872    -0.000000000000000
    -0.000000000000000    -0.000000000000000    -0.174849000000000
1 18
     0.064565465485293    -0.348936898722001    -0.244929666666667
    -0.095482231493146    -0.192004465484799    -0.142995228161221
    -0.001234209339815    -0.282139514902593    -0.409796500000000
1 19
     0.030294916897980     0.026943348904312    -0.022576500000000
     0.026943348808084     0.061406416436579     0.013034548306332
     0.021125911858752    -0.012197050899018    -0.460930000000000
1 20
     0.030294916979435    -0.026943348904312     0.022576500000000
    -0.026943348902141     0.061406416355124     0.013034548374586
    -0.021125911821877    -0.012197050899018    -0.460930000000000
1 21
    -0.071751218139409    -0.000000000000000     0.000000000000000
    -0.000000000148571     0.026535218139828    -0.049484691527062
    -0.000000000073370     0.048537418587544    -0.262139000000000
1 22
     0.001963609005686     0.042559275371488     0.042855000000000
     0.042559275368058    -0.047179609005267     0.024742345828311
    -0.042034637455869    -0.024268709293772    -0.262139000000000
1 23
    -0.006066758784944     0.000000000000000    -0.000000000000000
     0.000000000068632    -0.051469907882733     0.076884580577247
     0.000000000116752    -0.077236715524418    -0.325173500000000
1 24
     0.001963609134352    -0.042559275371488    -0.042855000000000
    -0.042559275219487    -0.047179609133933     0.024742345698751
     0.042034637529238    -0.024268709293772    -0.262139000000000
1 25
     0.076962166124423    -0.000000000000000     0.000000000000000
     0.000000000094057     0.014739167210135    -0.026069096680918
    -0.000000000036874     0.024394101798036    -0.460930000000000
1 26
    -0.040119120638004     0.019660140283199     0.066584000000000
     0.019660140212983    -0.017417546029673    -0.038442290187975
    -0.066888957746322     0.038618357762209    -0.325173500000000
1 27
    -0.040119120578567    -0.019660140283199    -0.066584000000000
    -0.019660140281615    -0.017417546089109    -0.038442290389272
     0.066888957629571     0.038618357762209    -0.325173500000000
1 28
    -0.113404898915702     0.252610774512627     1.877264500000000
     0.252610773610429     0.178284898911807    -1.083839160587873
     1.877751644545041    -1.084120417493023    -1.270415000000000
1 29
    -0.113404898152005    -0.252610774512627    -1.877264500000000
    -0.252610774492271     0.178284898148110    -1.083839166263252
    -1.877751641267509    -1.084120417493023    -1.270415000000000
1 30
    -0.325400464597826     0.000000000000000     0.000000000000000
    -0.000000000426855    -0.043016202071576    -0.067776302738827
     0.000000000099544    -0.065853074557082     0.069928500000000
1 31
    -0.113612267887972     0.122275972599974     0.058696000000000
     0.122275972590120    -0.254804398781431     0.033888151458139
     0.057030435381901     0.032926537278541     0.069928500000000
1 32
     0.228100876672098     0.000000000000000     0.000000000000000
     0.000000000639599    -0.195023543336441    -0.198796131257213
     0.000000000300391    -0.198722904067984     0.078076500000000
1 33
    -0.113612267518305    -0.122275972599974    -0.058696000000000
    -0.122275972163266    -0.254804399151097     0.033888151280688
    -0.057030435481445     0.032926537278541     0.069928500000000
1 34
     0.324129797061864     0.000000000000000    -0.000000000000000
     0.000000000881842    -0.259249797065759     2.167678326851124
    -0.000000003277532     2.168240834986047    -1.270415000000000
1 35
    -0.089242438611261     0.183218248511758    -0.172162500000000
     0.183218247857395     0.122319771946918     0.099398065368364
    -0.172099083229758     0.099361452033992     0.078076500000000
1 36
    -0.089242438057352    -0.183218248511758     0.172162500000000
    -0.183218248496994     0.122319771393009     0.099398065888849
     0.172099082929367     0.099361452033992     0.078076500000000
1 37
    -0.030317442995549     0.029582083256724    -0.048686500000000
     0.029582083254340    -0.064475890337848    -0.028109163928831
    -0.073583540143866    -0.042483476785852     0.318381500000000
1 38
    -0.030317442906116    -0.029582083256724     0.048686500000000
    -0.029582083151072    -0.064475890427281    -0.028109163781642
     0.073583540272303    -0.042483476785852     0.318381500000000
1 39
     0.032922407296903     0.000000000000000    -0.000000000000000
     0.000000000069871    -0.013300407296955     0.004849742256765
     0.000000000010742    -0.007106468901638     0.060587000000000
1 40
     0.038762880563231    -0.020459931933587    -0.065465500000000
    -0.020459931860515     0.015137786104030     0.037796523914166
    -0.047666163469554     0.027520072311493     0.167177500000000
1 41
    -0.081555114098430     0.000000000000000    -0.000000000000000
    -0.000000000103268    -0.013238219234966     0.056218327710473
    -0.000000000128437     0.084966953571703     0.318381500000000
1 42
     0.038762880501376     0.020459931933587     0.065465500000000
     0.020459931931939     0.015137786165885     0.037796524112083
     0.047666163386355     0.027520072311493     0.167177500000000
1 43
     0.003325238936284    -0.000000000000000     0.000000000000000
    -0.000000000071424     0.050575427730976    -0.075593048026249
     0.000000000083199    -0.055040144622986     0.167177500000000
1 44
    -0.001744703618236    -0.020015065854624    -0.004200000000000
    -0.020015065853011     0.021366703618184    -0.002424871134731
     0.006154382589033     0.003553234450819     0.060587000000000
1 45
    -0.001744703678746     0.020015065854624     0.004200000000000
     0.020015065783140     0.021366703678693    -0.002424871122034
    -0.006154382599775     0.003553234450819     0.060587000000000
1 46
    -0.862322316760830    -0.401732414388249    -0.338200000000000
    -0.401732414355876    -0.398441683220380    -0.195259861372882
    -0.874567793683608    -0.504931952009489    -0.897981500000000
1 47
    -0.862322317975355     0.401732414388249     0.338200000000000
     0.401732412953464    -0.398441682005855    -0.195259860350429
     0.874567795210128    -0.504931952009489    -0.897981500000000
1 48
     0.151334477357297     0.000000000000000     0.000000000000000
     0.000000000277261    -0.032086477357408    -0.115792215182412
     0.000000000051290    -0.033930937675627    -0.117676500000000
1 49
     0.063626935719870    -0.054398408284701     0.168634500000000
    -0.054398408090417     0.000813064279444    -0.097361173625856
     0.014429463307367    -0.008330854525106    -0.151668000000000
1 50
    -0.166501365235629     0.000000000000000    -0.000000000000000
     0.000000001402412    -1.094262634745581     0.390519721723311
    -0.000000001526519     1.009863904018979    -0.897981500000000
1 51
     0.063626935555412     0.054398408284701    -0.168634500000000
     0.054398408280317     0.000813064443903    -0.097361174135675
    -0.014429463282181    -0.008330854525106    -0.151668000000000
1 52
    -0.030593871276311    -0.000000000000000    -0.000000000000000
    -0.000000000189900     0.095033871275625     0.194722347761531
    -0.000000000025186     0.016661709050211    -0.151668000000000
1 53
     0.013768761441326    -0.079423603257180     0.100279000000000
    -0.079423603250780     0.105479238558564     0.057896107742789
     0.029385053948845     0.016965468837813    -0.117676500000000
1 54
     0.013768761201211     0.079423603257180    -0.100279000000000
     0.079423602973519     0.105479238798679     0.057896107439624
    -0.029385054000135     0.016965468837813    -0.117676500000000
1 55
    -1.709264000002265     0.000000000000000     0.000000000000000
     0.000000000000000    -1.709264000002266     0.000000000000000
    -0.000000000000000    -0.000000000000000    -3.379116500000000
1 56
     0.406068457241057    -0.119202805595701     0.314088666666667
     0.174574195001891    -0.200154123906216     0.133321724514322
     0.297902028989274    -0.108715566568968    -0.133794500000000
1 57
     0.406068456880681     0.119202805595701    -0.314088666666667
    -0.174574193169148    -0.200154123545840     0.133321723564764
    -0.297902028660603    -0.108715566568968    -0.133794500000000
1 58
    -0.024621963235896    -0.423233425096428    -0.272504333333333
    -0.129456425245735     0.230536296570738     0.205347901694075
    -0.054800572535035     0.312348508321355    -0.133794500000000
1 59
    -0.024621964515423     0.423233425096428     0.272504333333333
     0.129456424474336     0.230536297850264     0.205347902517915
     0.054800571590737     0.312348508321355    -0.133794500000000
1 60
     0.063513000000015    -0.000000000000000     0.000000000000000
    -0.000000000000000     0.063513000000015     0.000000000000000
    -0.000000000000000    -0.000000000000000    -0.137018000000000
1 61
    -0.072574993029110    -0.101770730692129     0.041584333333333
    -0.395547730500515     0.278489326363952    -0.338669626082679
     0.243101457069865    -0.203632941752387    -0.133794500000000
1 62
     0.113724999999450    -0.000000000000000     0.000000000000000
    -0.000000000000000     0.113724999999450     0.000000000000000
    -0.000000000000000    -0.000000000000000    -0.130172500000000
1 63
    -0.072574993336785     0.101770730692129    -0.041584333333333
     0.395547729439171     0.278489326671627    -0.338669626208397
    -0.243101456454239    -0.203632941752387    -0.133794500000000
1 64
    -0.054449000000605     0.000000000000000    -0.000000000000000
     0.000000000000000    -0.054449000000605     0.000000000000000
    -0.000000000000000    -0.000000000000000     0.398932500000000
1 65
     0.021663210350271     0.012804082247442    -0.061059500000000
     0.023477082274949    -0.024894543683544     0.040157886519656
     0.017115129989328     0.020081281873977     0.267296500000000
1 66
     0.021663210388981    -0.012804082247442     0.061059500000000
    -0.023477082134195    -0.024894543722254     0.040157886704252
    -0.017115130050038     0.020081281873977     0.267296500000000
1 67
     0.002455099918866    -0.034566890027105    -0.004248000000000
    -0.023893889971167    -0.005686433252139    -0.072958021406495
    -0.025948465244611     0.004781496462663     0.267296500000000
1 68
     0.002455099814362     0.034566890027105     0.004248000000000
     0.023893889995781    -0.005686433147636    -0.072958021393652
     0.025948465230156     0.004781496462663     0.267296500000000
1 69
     0.002702000000145    -0.000000000000000    -0.000000000000000
    -0.000000000000000     0.002702000000145    -0.000000000000000
    -0.000000000000000    -0.000000000000000     0.200084000000000
1 70
    -0.028965310227453    -0.005753307779663    -0.065307500000000
    -0.016426307832352     0.025733976894180     0.032800134689400
    -0.008833335180118    -0.024862778336640     0.267296500000000
1 71
     0.064659999999547    -0.000000000000000    -0.000000000000000
    -0.000000000000000     0.064659999999547    -0.000000000000000
    -0.000000000000000    -0.000000000000000     0.191218000000000
1 72
    -0.028965310244847     0.005753307779663     0.065307500000000
     0.016426307666984     0.025733976911573     0.032800134886839
     0.008833335255284    -0.024862778336640     0.267296500000000
1 73
    -2.041722354881333     0.382897003073635     0.400972500000000
     0.382897001706120    -1.599590978534500    -0.231501579995158
    -0.018470006238510     0.010663663074168    -1.711690500000000
1 74
    -2.041722353723752    -0.382897003073634    -0.400972500000000
    -0.382897003042779    -1.599590979692081    -0.231501581207385
     0.018470006206272     0.010663663074168    -1.711690500000000
1 75
     0.440189192676103    -0.000000000000000    -0.000000000000000
     0.000000000585089     0.053125473993279     0.018375904350990
    -0.000000000024620     0.016287192221022    -0.204275500000000
1 76
     0.149891403917336    -0.167603506784325    -0.015914000000000
    -0.167603506770819     0.343423262752046    -0.009187952199551
    -0.014105122194537    -0.008143596110511    -0.204275500000000
1 77
    -0.300240310579317    -0.000000000000000    -0.000000000000000
    -0.000000000965041     0.338179643911140     0.049077659587655
    -0.000000000083553     0.055274180061071    -0.277696000000000
1 78
     0.149891403410634     0.167603506784325     0.015914000000000
     0.167603506185730     0.343423263258748    -0.009187952151439
     0.014105122219157    -0.008143596110511    -0.204275500000000
1 79
    -1.378525291518663     0.000000000000000    -0.000000000000000
     0.000000001336660    -2.262788041897170     0.463003161202544
     0.000000000032239    -0.021327326148335    -1.711690500000000
1 80
     0.178574655706401    -0.276443949688219     0.042502500000000
    -0.276443948700901    -0.140635322374578    -0.024538829729580
     0.047868844104314    -0.027637090030536    -0.277696000000000
1 81
     0.178574654870650     0.276443949688219    -0.042502500000000
     0.276443949665942    -0.140635321538828    -0.024538829858075
    -0.047868844020762    -0.027637090030536    -0.277696000000000
1 82
    -0.122282461008860    -0.129322197485503     0.111524500000000
    -0.129322197023630    -0.271610872324388    -0.064388699868869
     0.166892705201382    -0.096355548277685     0.369084000000000
1 83
    -0.122282461399830     0.129322197485503    -0.111524500000000
     0.129322197475082    -0.271610871933419    -0.064388700206032
    -0.166892704910079    -0.096355548277685     0.369084000000000
1 84
     0.221615370802510     0.000000000000000     0.000000000000000
     0.000000000462994    -0.084676704135033    -0.017016244468290
     0.000000000144113    -0.095337303010696     0.156291000000000
1 85
    -0.008103685200165    -0.132628359057972     0.014736500000000
    -0.132628359047284     0.145042351867642     0.008508122256421
     0.082564526188118     0.047668651505348     0.156291000000000
1 86
    -0.001454550268154    -0.000000000000000     0.000000000000000
    -0.000000000370782     0.243835216936134    -0.147446598362371
     0.000000000206738    -0.136766720004530     0.287071500000000
1 87
    -0.008103685601129     0.132628359057972    -0.014736500000000
     0.132628358584290     0.145042352268606     0.008508122211869
    -0.082564526332231     0.047668651505348     0.156291000000000
1 88
    -0.346275077591183     0.000000000000000    -0.000000000000000
    -0.000000000451452    -0.047618255742066     0.128777400074901
    -0.000000000291304     0.192711096555371     0.369084000000000
1 89
     0.182512775295615    -0.106213584940618    -0.127692500000000
    -0.106213584561276     0.059867891372364     0.073723298988164
    -0.118443453911424     0.068383360002265     0.287071500000000
1 90
     0.182512774974509     0.106213584940618     0.127692500000000
     0.106213584932059     0.059867891693471     0.073723299374207
     0.118443453704686     0.068383360002265     0.287071500000000
2 1
    -1.930043976050273    -0.319660443427400    -0.231055666666667
     0.318840552132022     0.622443309379962     0.312269130061143
     0.230797811503485     0.314279337972321     0.747534000000000
2 2
    11.922551000107420    -0.000000000000000     0.000000000000000
    -0.000000000000001    11.922551000107427     0.000000000000000
     0.000000000000000     0.000000000000000    13.226942499999998
2 3
    -1.930043977016677     0.319660443427400     0.231055666666667
    -0.318840559848748     0.622443310346366     0.312269130759674
    -0.230797812453620     0.314279337972321     0.747534000000000
2 4
    -0.221915000000289     0.000000000000000     0.000000000000000
     0.000000000000000    -0.221915000000289     0.000000000000000
     0.000000000000000     0.000000000000000     0.329034000000000
2 5
    -0.015323492467070     1.424304945723572    -0.385960833333333
     0.785803946218918    -1.292277174203242     0.043965511050361
    -0.156774983791140    -0.357016437479943     0.747534000000000
2 6
    -0.015323488161085    -1.424304945723572     0.385960833333333
    -0.785803942358408    -1.292277178509227     0.043965512217205
     0.156774984870478    -0.357016437479943     0.747534000000000
2 7
    -0.016033531969466    -0.786213889150971     0.154905166666667
    -1.424714884621278    -1.291567134700846    -0.356234641810036
     0.387572796244760     0.042737099507622     0.747534000000000
2 8
    -0.016033534346362     0.786213889150971    -0.154905166666667
     1.424714888477494    -1.291567132323950    -0.356234642278348
    -0.387572796373964     0.042737099507622     0.747534000000000
2 9
    -0.220329000000041     0.000000000000000     0.000000000000000
     0.000000000000000    -0.220329000000041     0.000000000000000
     0.000000000000000     0.000000000000000     0.327034500000000
2 10
    -0.320301111084884     0.126720589317304    -0.246302333333333
    -0.126734077893644     0.192862111085378    -0.140617699756944
    -0.244957092188753     0.140000900439106    -0.409796500000000
2 11
     0.704867000000840    -0.000000000000000    -0.000000000000000
    -0.000000000000000     0.704867000000841    -0.000000000000000
     0.000000000000000     0.000000000000000    -0.986946000000000
2 12
    -0.320301110701780    -0.126720589317304     0.246302333333333
     0.126734076342239     0.192862110702274    -0.140617699012318
     0.244957091765499     0.140000900439106    -0.409796500000000
2 13
    -0.106207000003170     0.000000000000000    -0.000000000000000
     0.000000000000000    -0.106207000003170     0.000000000000000
     0.000000000000000     0.000000000000000    -0.173437000000000
2 14
     0.064577145791915     0.095475488039304    -0.001372666666667
     0.348930154456680    -0.192016145791421     0.283612927173539
    -0.243722882425684     0.142138614463487    -0.409796500000000
2 15
     0.064577146080558    -0.095475488039304     0.001372666666667
    -0.348930153680942    -0.192016146080064     0.283612927177689
     0.243722881995968     0.142138614463487    -0.409796500000000
2 16
     0.064565465485293    -0.348936898722001    -0.244929666666667
    -0.095482231493146    -0.192004465484799    -0.142995228161221
    -0.001234209339815    -0.282139514902593    -0.409796500000000
2 17
     0.064565464430381     0.348936898722001     0.244929666666667
     0.095482232268813    -0.192004464429887    -0.142995227420745
     0.001234210192784    -0.282139514902593    -0.409796500000000
2 18
    -0.106047999999872     0.000000000000000    -0.000000000000000
     0.000000000000000    -0.106047999999872    -0.000000000000000
     0.000000000000000     0.000000000000000    -0.174849000000000
2 19
    -0.071751218139409    -0.000000000000000     0.000000000000000
    -0.000000000148571     0.026535218139828    -0.049484691527062
    -0.000000000073370     0.048537418587544    -0.262139000000000
2 20
     0.030294916897980     0.026943348904312    -0.022576500000000
     0.026943348808084     0.061406416436579     0.013034548306332
     0.021125911858752    -0.012197050899018    -0.460930000000000
2 21
     0.030294916979435    -0.026943348904312     0.022576500000000
    -0.026943348902141     0.061406416355124     0.013034548374586
    -0.021125911821877    -0.012197050899018    -0.460930000000000
2 22
     0.001963609134352    -0.042559275371488    -0.042855000000000
    -0.042559275219487    -0.047179609133933     0.024742345698751
     0.042034637529238    -0.024268709293772    -0.262139000000000
2 23
     0.001963609005686     0.042559275371488     0.042855000000000
     0.042559275368058    -0.047179609005267     0.024742345828311
    -0.042034637455869    -0.024268709293772    -0.262139000000000
2 24
    -0.006066758784944     0.000000000000000    -0.000000000000000
     0.000000000068632    -0.051469907882733     0.076884580577247
     0.000000000116752    -0.077236715524418    -0.325173500000000
2 25
    -0.040119120578567    -0.019660140283199    -0.066584000000000
    -0.019660140281615    -0.017417546089109    -0.038442290389272
     0.066888957629571     0.038618357762209    -0.325173500000000
2 26
     0.076962166124423     0.000000000000000     0.000000000000000
     0.000000000094057     0.014739167210135    -0.026069096680918
    -0.000000000036874     0.024394101798036    -0.460930000000000
2 27
    -0.040119120638004     0.019660140283199     0.066584000000000
     0.019660140212983    -0.017417546029673    -0.038442290187975
    -0.066888957746322     0.038618357762209    -0.325173500000000
2 28
    -0.325400464597826    -0.000000000000000     0.000000000000000
    -0.000000000426855    -0.043016202071576    -0.067776302738827
     0.000000000099544    -0.065853074557082     0.069928500000000
2 29
    -0.113404898915702     0.252610774512627     1.877264500000000
     0.252610773610429     0.178284898911807    -1.083839160587873
     1.877751644545041    -1.084120417493023    -1.270415000000000
2 30
    -0.113404898152005    -0.252610774512627    -1.877264500000000
    -0.252610774492271     0.178284898148110    -1.083839166263252
    -1.877751641267509    -1.084120417493023    -1.270415000000000
2 31
    -0.113612267518305    -0.122275972599974    -0.058696000000000
    -0.122275972163266    -0.254804399151097     0.033888151280688
    -0.057030435481445     0.032926537278541     0.069928500000000
2 32
    -0.113612267887972     0.122275972599974     0.058696000000000
     0.122275972590120    -0.254804398781431     0.033888151458139
     0.057030435381901     0.032926537278541     0.069928500000000
2 33
     0.228100876672098     0.000000000000000     0.000000000000000
     0.000000000639599    -0.195023543336441    -0.198796131257213
     0.000000000300391    -0.198722904067984     0.078076500000000
2 34
    -0.089242438057352    -0.183218248511758     0.172162500000000
    -0.183218248496994     0.122319771393009     0.099398065888849
     0.172099082929367     0.099361452033992     0.078076500000000
2 35
     0.324129797061864     0.000000000000000    -0.000000000000000
     0.000000000881842    -0.259249797065759     2.167678326851124
    -0.000000003277532     2.168240834986047    -1.270415000000000
2 36
    -0.089242438611261     0.183218248511758    -0.172162500000000
     0.183218247857395     0.122319771946918     0.099398065368364
    -0.172099083229758     0.099361452033992     0.078076500000000
2 37
     0.032922407296903     0.000000000000000    -0.000000000000000
     0.000000000069871    -0.013300407296955     0.004849742256765
     0.000000000010742    -0.007106468901638     0.060587000000000
2 38
    -0.030317442995549     0.029582083256724    -0.048686500000000
     0.029582083254340    -0.064475890337848    -0.028109163928831
    -0.073583540143866    -0.042483476785852     0.318381500000000
2 39
    -0.030317442906116    -0.029582083256724     0.048686500000000
    -0.029582083151072    -0.064475890427281    -0.028109163781642
     0.073583540272303    -0.042483476785852     0.318381500000000
2 40
     0.038762880501376     0.020459931933587     0.065465500000000
     0.020459931931939     0.015137786165885     0.037796524112083
     0.047666163386355     0.027520072311493     0.167177500000000
2 41
     0.038762880563231    -0.020459931933587    -0.065465500000000
    -0.020459931860515     0.015137786104030     0.037796523914166
    -0.047666163469554     0.027520072311493     0.167177500000000
2 42
    -0.081555114098430    -0.000000000000000    -0.000000000000000
    -0.000000000103268    -0.013238219234966     0.056218327710473
    -0.000000000128437     0.084966953571703     0.318381500000000
2 43
    -0.001744703678746     0.020015065854624     0.004200000000000
     0.020015065783140     0.021366703678693    -0.002424871122034
    -0.006154382599775     0.003553234450819     0.060587000000000
2 44
     0.003325238936284    -0.000000000000000     0.000000000000000
    -0.000000000071424     0.050575427730976    -0.075593048026249
     0.000000000083199    -0.055040144622986     0.167177500000000
2 45
    -0.001744703618236    -0.020015065854624    -0.004200000000000
    -0.020015065853011     0.021366703618184    -0.002424871134731
     0.006154382589033     0.003553234450819     0.060587000000000
2 46
     0.151334477357297     0.000000000000000     0.000000000000000
     0.000000000277261    -0.032086477357408    -0.115792215182412
     0.000000000051290    -0.033930937675627    -0.117676500000000
2 47
    -0.862322316760830    -0.401732414388249    -0.338200000000000
    -0.401732414355876    -0.398441683220380    -0.195259861372882
    -0.874567793683608    -0.504931952009489    -0.897981500000000
2 48
    -0.862322317975355     0.401732414388249     0.338200000000000
     0.401732412953464    -0.398441682005855    -0.195259860350429
     0.874567795210128    -0.504931952009489    -0.897981500000000
2 49
     0.063626935555412     0.054398408284701    -0.168634500000000
     0.054398408280317     0.000813064443903    -0.097361174135675
    -0.014429463282181    -0.008330854525106    -0.151668000000000
2 50
     0.063626935719870    -0.054398408284701     0.168634500000000
    -0.054398408090417     0.000813064279444    -0.097361173625856
     0.014429463307367    -0.008330854525106    -0.151668000000000
2 51
    -0.166501365235629     0.000000000000000    -0.000000000000000
     0.000000001402412    -1.094262634745581     0.390519721723311
    -0.000000001526519     1.009863904018979    -0.897981500000000
2 52
     0.013768761201211     0.079423603257180    -0.100279000000000
     0.079423602973519     0.105479238798679     0.057896107439624
    -0.029385054000135     0.016965468837813    -0.117676500000000
2 53
    -0.030593871276311    -0.000000000000000    -0.000000000000000
    -0.000000000189900     0.095033871275625     0.194722347761531
    -0.000000000025186     0.016661709050211    -0.151668000000000
2 54
     0.013768761441326    -0.079423603257180     0.100279000000000
    -0.079423603250780     0.105479238558564     0.057896107742789
     0.029385053948845     0.016965468837813    -0.117676500000000
2 55
     0.406068456880681     0.119202805595701    -0.314088666666667
    -0.174574193169148    -0.200154123545840     0.133321723564764
    -0.297902028660603    -0.108715566568968    -0.133794500000000
2 56
    -1.709264000002265     0.000000000000000     0.000000000000000