90   
8    

1    
  0.0100000000000000   0.0000000000000000   0.0000000000000000
  -0.1192255100   -0.0007106200   -0.0003902500
   0.0194249400   -0.0031941500   -0.0023191300
   0.0191760300    0.0031994000    0.0023058900
   0.0001501200   -0.0142047100    0.0038484900
   0.0001566000    0.0142811400   -0.0038668200
   0.0022191500    0.0000019100   -0.0000095400
   0.0001129800   -0.0078668600    0.0015751700
   0.0022032900    0.0000002700   -0.0000034700
   0.0002073500    0.0078575100   -0.0015268400
  -0.0070486700   -0.0000055600    0.0000031000
   0.0032019900    0.0012512600   -0.0024684800
   0.0032043600   -0.0012830400    0.0024696600
  -0.0006530800   -0.0009387000    0.0000095600
  -0.0006385300    0.0009704700   -0.0000058000
   0.0010620700    0.0000209700    0.0000010700
  -0.0006379400   -0.0034941500   -0.0024329200
   0.0010604800   -0.0000008500    0.0000161100
  -0.0006536300    0.0034843600    0.0024535800
  -0.0002916200   -0.0002756000    0.0002023000
  -0.0003068900    0.0002504700   -0.0002492300
   0.0007097500   -0.0000022300   -0.0000243700
  -0.0000204800   -0.0004332800   -0.0004355900
   0.0000531200   -0.0000084900   -0.0000085500
  -0.0000110300    0.0004313500    0.0004215100
  -0.0007770100    0.0000129700   -0.0000186100
   0.0003965700   -0.0001808100   -0.0006763500
   0.0004133600    0.0001993200    0.0006553300
   0.0011562500   -0.0025223600   -0.0186957300
   0.0011097900    0.0025334200    0.0188495600
   0.0032559500   -0.0000030400    0.0000106100
   0.0011357600   -0.0012059800   -0.0005736000
  -0.0022793200   -0.0000002700    0.0000125300
   0.0011345400    0.0012361700    0.0006003200
  -0.0032392400    0.0000275900   -0.0000567300
   0.0008821500   -0.0018450400    0.0017359900
   0.0009010100    0.0018222500   -0.0017072600
   0.0003003300   -0.0002946800    0.0004928400
   0.0003067800    0.0002982800   -0.0004808900
  -0.0003294500    0.0000016500    0.0000003800
  -0.0003880000    0.0002040000    0.0006547700
   0.0008147900   -0.0000029700   -0.0000009800
  -0.0003868700   -0.0002058700   -0.0006545400
  -0.0000336400   -0.0000040200    0.0000078800
   0.0000159300    0.0001993900    0.0000433800
   0.0000191900   -0.0002005200   -0.0000406200
   0.0085324400    0.0039573000    0.0032467600
   0.0087140400   -0.0040772900   -0.0035172400
  -0.0015136000   -0.0000015900    0.0000096600
  -0.0006351700    0.0005450000   -0.0016813100
   0.0016649800   -0.0000664700    0.0000855500
  -0.0006369000   -0.0005437800    0.0016913800
   0.0003054700    0.0000055800   -0.0000106200
  -0.0001359100    0.0007953600   -0.0010051800
  -0.0001392100   -0.0007926700    0.0010004000
   0.0170926400    0.0000149800   -0.0000443300
  -0.0040729100    0.0011916200   -0.0031904800
  -0.0040482300   -0.0011924300    0.0030902000
   0.0002487200    0.0042251300    0.0026825500
   0.0002436100   -0.0042397400   -0.0027686300
  -0.0006351300   -0.0000001000   -0.0000368800
   0.0007493600    0.0010105500   -0.0004504500
  -0.0011372500    0.0000036400   -0.0000463700
   0.0007020200   -0.0010250600    0.0003823300
   0.0005444900    0.0000040000    0.0000460400
  -0.0002184900   -0.0001274500    0.0006510700
  -0.0002148400    0.0001288500   -0.0005690100
  -0.0000241700    0.0003429100    0.0000837200
  -0.0000247100   -0.0003484800   -0.0000001300
  -0.0000270200   -0.0000009600    0.0000360300
   0.0002920600    0.0000589400    0.0006920300
  -0.0006466000    0.0000030000    0.0000395700
   0.0002870900   -0.0000559600   -0.0006152300
   0.0196285800   -0.0033690400   -0.0037490300
   0.0212076800    0.0042857600    0.0042704200
  -0.0044049000    0.0000004000    0.0000338000
  -0.0014969900    0.0016597600    0.0001916300
   0.0029995100   -0.0000021400    0.0000300000
  -0.0014978300   -0.0016871000   -0.0001266500
   0.0137834400   -0.0000980700    0.0000496800
  -0.0017827600    0.0027755100   -0.0003966500
  -0.0017858400   -0.0027583800    0.0004534000
   0.0012195300    0.0012903900   -0.0011404700
   0.0012234900   -0.0012915000    0.0010900200
  -0.0022138600   -0.0000001000   -0.0000340100
   0.0000818400    0.0013243000   -0.0001813400
   0.0000167000   -0.0000043500   -0.0000275700
   0.0000779400   -0.0013322400    0.0001133900
   0.0034653800    0.0000002700   -0.0000209900
  -0.0018196000    0.0010559300    0.0012364900
  -0.0018328100   -0.0010646100   -0.0013173600

1    
  0.0000000000000000   0.0000000000000000   0.0100000000000000
   0.0000000000    0.0000000000   -0.1336527100
   0.0022662600   -0.0031388200   -0.0075078400
  -0.0022662600   -0.0031388200   -0.0075078400
   0.0015851700    0.0035320500   -0.0075078400
  -0.0015851700    0.0035320500   -0.0075078400
   0.0000000000    0.0000000000   -0.0033430800
   0.0038514200   -0.0003932300   -0.0075078400
   0.0000000000    0.0000000000   -0.0033131300
  -0.0038514200   -0.0003932300   -0.0075078400
   0.0000000000    0.0000000000    0.0098896500
  -0.0024464400   -0.0014110200    0.0041399800
   0.0024464400   -0.0014110200    0.0041399800
   0.0024452000   -0.0014131600    0.0041399800
  -0.0024452000   -0.0014131600    0.0041399800
   0.0000000000    0.0000000000    0.0017699100
  -0.0000012400    0.0028241900    0.0041399800
   0.0000000000    0.0000000000    0.0017906400
   0.0000012400    0.0028241900    0.0041399800
  -0.0002013900    0.0001162700    0.0045753800
   0.0002013900    0.0001162700    0.0045753800
   0.0000000000   -0.0004810400    0.0025880800
   0.0004166000    0.0002405200    0.0025880800
   0.0000000000    0.0007733100    0.0032216600
  -0.0004166000    0.0002405200    0.0025880800
   0.0000000000   -0.0002325400    0.0045753800
   0.0006697100   -0.0003866600    0.0032216600
  -0.0006697100   -0.0003866600    0.0032216600
  -0.0189059000    0.0109153300    0.0128061100
   0.0189059000    0.0109153300    0.0128061100
   0.0000000000    0.0006514700   -0.0006514800
  -0.0005641900   -0.0003257300   -0.0006514800
   0.0000000000    0.0019833500   -0.0007503000
   0.0005641900   -0.0003257300   -0.0006514800
   0.0000000000   -0.0218306600    0.0128061100
   0.0017176300   -0.0009916800   -0.0007503000
  -0.0017176300   -0.0009916800   -0.0007503000
   0.0007423700    0.0004286100   -0.0031953400
  -0.0007423700    0.0004286100   -0.0031953400
   0.0000000000    0.0000721700   -0.0006049400
   0.0004790200   -0.0002765600   -0.0016754000
   0.0000000000   -0.0008572200   -0.0031953400
  -0.0004790200   -0.0002765600   -0.0016754000
   0.0000000000    0.0005531300   -0.0016754000
  -0.0000625000   -0.0000360800   -0.0006049400
   0.0000625000   -0.0000360800   -0.0006049400
   0.0085963900    0.0049631300    0.0088016200
  -0.0085963900    0.0049631300    0.0088016200
   0.0000000000    0.0003361300    0.0011771300
  -0.0001431500    0.0000826500    0.0015134800
   0.0000000000   -0.0099262500    0.0088016200
   0.0001431500    0.0000826500    0.0015134800
   0.0000000000   -0.0001652900    0.0015134800
  -0.0002911000   -0.0001680700    0.0011771300
   0.0002911000   -0.0001680700    0.0011771300
   0.0000000000    0.0000000000    0.0353246400
  -0.0029812700    0.0010867600    0.0013185900
   0.0029812700    0.0010867600    0.0013185900
   0.0005494700   -0.0031252400    0.0013185900
  -0.0005494700   -0.0031252400    0.0013185900
   0.0000000000    0.0000000000    0.0013407900
  -0.0024318000    0.0020384800    0.0013185900
   0.0000000000    0.0000000000    0.0012714200
   0.0024318000    0.0020384800    0.0013185900
   0.0000000000    0.0000000000   -0.0039737800
  -0.0001746400   -0.0002022400   -0.0026488100
   0.0001746400   -0.0002022400   -0.0026488100
   0.0002624700   -0.0000501200   -0.0026488100
  -0.0002624700   -0.0000501200   -0.0026488100
   0.0000000000    0.0000000000   -0.0019783400
   0.0000878300    0.0002523700   -0.0026488100
   0.0000000000    0.0000000000   -0.0018861100
  -0.0000878300    0.0002523700   -0.0026488100
   0.0001305700   -0.0000753800    0.0171829800
  -0.0001305700   -0.0000753800    0.0171829800
   0.0000000000   -0.0001563300    0.0020776000
   0.0001353800    0.0000781600    0.0020776000
   0.0000000000   -0.0005510400    0.0028084100
  -0.0001353800    0.0000781600    0.0020776000
   0.0000000000    0.0001507700    0.0171829800
  -0.0004772200    0.0002755200    0.0028084100
   0.0004772200    0.0002755200    0.0028084100
  -0.0016684800    0.0009633000   -0.0037180400
   0.0016684800    0.0009633000   -0.0037180400
   0.0000000000    0.0009531000   -0.0015950500
  -0.0008254100   -0.0004765500   -0.0015950500
   0.0000000000    0.0013774500   -0.0029124000
   0.0008254100   -0.0004765500   -0.0015950500
   0.0000000000   -0.0019266000   -0.0037180400
   0.0011929100   -0.0006887300   -0.0029124000
  -0.0011929100   -0.0006887300   -0.0029124000

1    
  0.0000000000000000   0.0000000000000000  -0.0100000000000000
   0.0000000000    0.0000000000    0.1308861400
  -0.0023497000    0.0031467700    0.0074428400
   0.0023497000    0.0031467700    0.0074428400
  -0.0015503300   -0.0036082800    0.0074428400
   0.0015503300   -0.0036082800    0.0074428400
   0.0000000000    0.0000000000    0.0032376000
  -0.0039000300    0.0004615100    0.0074428400
   0.0000000000    0.0000000000    0.0032275600
   0.0039000300    0.0004615100    0.0074428400
   0.0000000000    0.0000000000   -0.0098492700
   0.0024527000    0.0013890000   -0.0040559500
  -0.0024527000    0.0013890000   -0.0040559500
  -0.0024292600    0.0014296100   -0.0040559500
   0.0024292600    0.0014296100   -0.0040559500
   0.0000000000    0.0000000000   -0.0016988300
   0.0000234500   -0.0028186000   -0.0040559500
   0.0000000000    0.0000000000   -0.0017063400
  -0.0000234500   -0.0028186000   -0.0040559500
   0.0002211300   -0.0001276700   -0.0046432200
  -0.0002211300   -0.0001276700   -0.0046432200
   0.0000000000    0.0004897000   -0.0026547000
  -0.0004241000   -0.0002448500   -0.0026547000
   0.0000000000   -0.0007714200   -0.0032818100
   0.0004241000   -0.0002448500   -0.0026547000
   0.0000000000    0.0002553400   -0.0046432200
  -0.0006680700    0.0003857100   -0.0032818100
   0.0006680700    0.0003857100   -0.0032818100
   0.0186491300   -0.0107670800   -0.0126021900
  -0.0186491300   -0.0107670800   -0.0126021900
   0.0000000000   -0.0006655900    0.0007470900
   0.0005764200    0.0003328000    0.0007470900
   0.0000000000   -0.0019911100    0.0008112300
  -0.0005764200    0.0003328000    0.0007470900
   0.0000000000    0.0215341600   -0.0126021900
  -0.0017243500    0.0009955500    0.0008112300
   0.0017243500    0.0009955500    0.0008112300
  -0.0007293000   -0.0004210600    0.0031722900
   0.0007293000   -0.0004210600    0.0031722900
   0.0000000000   -0.0000699600    0.0006068000
  -0.0004743000    0.0002738400    0.0016681500
   0.0000000000    0.0008421200    0.0031722900
   0.0004743000    0.0002738400    0.0016681500
   0.0000000000   -0.0005476800    0.0016681500
   0.0000605900    0.0000349800    0.0006068000
  -0.0000605900    0.0000349800    0.0006068000
  -0.0088949700   -0.0051355100   -0.0091580100
   0.0088949700   -0.0051355100   -0.0091580100
   0.0000000000   -0.0003424900   -0.0011764000
   0.0001454400   -0.0000839700   -0.0015198800
   0.0000000000    0.0102710200   -0.0091580100
  -0.0001454400   -0.0000839700   -0.0015198800
   0.0000000000    0.0001679400   -0.0015198800
   0.0002966000    0.0001712400   -0.0011764000
  -0.0002966000    0.0001712400   -0.0011764000
   0.0000000000    0.0000000000   -0.0322576900
   0.0029767700   -0.0010875500   -0.0013573000
  -0.0029767700   -0.0010875500   -0.0013573000
  -0.0005465400    0.0031217300   -0.0013573000
   0.0005465400    0.0031217300   -0.0013573000
   0.0000000000    0.0000000000   -0.0013995700
   0.0024302300   -0.0020341800   -0.0013573000
   0.0000000000    0.0000000000   -0.0013320300
  -0.0024302300   -0.0020341800   -0.0013573000
   0.0000000000    0.0000000000    0.0040048700
   0.0001676600    0.0001993800    0.0026971200
  -0.0001676600    0.0001993800    0.0026971200
  -0.0002565000    0.0000455100    0.0026971200
   0.0002565000    0.0000455100    0.0026971200
   0.0000000000    0.0000000000    0.0020233400
  -0.0000888400   -0.0002448900    0.0026971200
   0.0000000000    0.0000000000    0.0019382500
   0.0000888400   -0.0002448900    0.0026971200
  -0.0002388300    0.0001378900   -0.0170508300
   0.0002388300    0.0001378900   -0.0170508300
   0.0000000000    0.0001694200   -0.0020079100
  -0.0001467200   -0.0000847100   -0.0020079100
   0.0000000000    0.0005544400   -0.0027455100
   0.0001467200   -0.0000847100   -0.0020079100
   0.0000000000   -0.0002757800   -0.0170508300
   0.0004801600   -0.0002772200   -0.0027455100
  -0.0004801600   -0.0002772200   -0.0027455100
   0.0016693700   -0.0009638100    0.0036636400
  -0.0016693700   -0.0009638100    0.0036636400
   0.0000000000   -0.0009536500    0.0015307700
   0.0008258800    0.0004768200    0.0015307700
   0.0000000000   -0.0013578800    0.0028290300
  -0.0008258800    0.0004768200    0.0015307700
   0.0000000000    0.0019276300    0.0036636400
  -0.0011759600    0.0006789400    0.0028290300
   0.0011759600    0.0006789400    0.0028290300

37   
  0.0100000000000000   0.0000000000000000   0.0000000000000000
   0.0002972000   -0.0002961700    0.0007353600
  -0.0003289000   -0.0000087700    0.0000067800
   0.0003065400    0.0002938200   -0.0007477200
  -0.0000372000    0.0000036800   -0.0000109800
   0.0000171600   -0.0001928500    0.0000556200
   0.0000225400    0.0002093300   -0.0000663100
  -0.0003848600    0.0001993900    0.0004751500
  -0.0003916400   -0.0002051300   -0.0004867100
   0.0008134900   -0.0000013000    0.0000037600
   0.0002972000   -0.0002961700   -0.0007353600
  -0.0003289000   -0.0000087700   -0.0000067800
   0.0003065400    0.0002938200    0.0007477200
  -0.0000372000    0.0000036800    0.0000109800
   0.0000171600   -0.0001928500   -0.0000556200
   0.0000225400    0.0002093300    0.0000663100
  -0.0003848600    0.0001993900   -0.0004751500
  -0.0003916400   -0.0002051300    0.0004867100
   0.0008134900   -0.0000013000   -0.0000037600
   0.0016758200   -0.0000365100   -0.0000245400
  -0.0006307100   -0.0005477800   -0.0001477200
  -0.0006521400    0.0005426300    0.0001389600
  -0.0001404100    0.0008041600    0.0002978700
  -0.0001313500   -0.0007960900   -0.0002947100
   0.0003035700    0.0000077200    0.0000038600
   0.0086919900   -0.0040911700    0.0088721000
  -0.0015202100    0.0000090300   -0.0000040500
   0.0085613800    0.0039361700   -0.0086185200
   0.0016758200   -0.0000365100    0.0000245400
  -0.0006307100   -0.0005477800    0.0001477200
  -0.0006521400    0.0005426300   -0.0001389600
  -0.0001404100    0.0008041600   -0.0002978700
  -0.0001313500   -0.0007960900    0.0002947100
   0.0003035700    0.0000077200   -0.0000038600
   0.0086919900   -0.0040911700   -0.0088721000
  -0.0015202100    0.0000090300    0.0000040500
   0.0085613800    0.0039361700    0.0086185200
  -0.0694701900    0.0003358500    0.0000000000
   0.0093752500   -0.0005446300    0.0000000000
   0.0091952900    0.0005419500    0.0000000000
   0.0018295900   -0.0048273900    0.0000000000
   0.0018360700    0.0048626500    0.0000000000
   0.0001742100   -0.0000084300    0.0000000000
   0.0018327300   -0.0037644400    0.0000000000
   0.0001727000    0.0000012100    0.0000000000
   0.0018340400    0.0037540500    0.0000000000
  -0.0006146800    0.0000045600    0.0000000000
   0.0000286600   -0.0000008200    0.0000000000
   0.0000337700   -0.0000064300    0.0000000000
  -0.0000258400   -0.0000369600    0.0000000000
  -0.0000342000    0.0000393300    0.0000000000
   0.0000005200    0.0000063400    0.0000000000
  -0.0000330600   -0.0000373000    0.0000000000
   0.0001234600   -0.0000012700    0.0000000000
  -0.0000357000    0.0000332700    0.0000000000
   0.0015727000    0.0020215400   -0.0031441400
   0.0004843700    0.0000006900   -0.0000237100
   0.0015698700   -0.0020108000    0.0030569700
   0.0000250100   -0.0000115800   -0.0000347400
  -0.0000655500    0.0003163000   -0.0000324900
  -0.0000637900   -0.0003181700   -0.0000336400
   0.0019351900   -0.0011033800   -0.0002936100
   0.0019314000    0.0011016800    0.0002206500
  -0.0019231200   -0.0000067000   -0.0000313500
   0.0015727000    0.0020215400    0.0031441400
   0.0004843700    0.0000006900    0.0000237100
   0.0015698700   -0.0020108000   -0.0030569700
   0.0000250100   -0.0000115800    0.0000347400
  -0.0000655500    0.0003163000    0.0000324900
  -0.0000637900   -0.0003181700    0.0000336400
   0.0019351900   -0.0011033800    0.0002936100
   0.0019314000    0.0011016800   -0.0002206500
  -0.0019231200   -0.0000067000    0.0000313500
  -0.0004233600    0.0000021600    0.0000389000
   0.0003314300    0.0001675300   -0.0001758500
   0.0003396500   -0.0001690400    0.0002503700
   0.0000211700   -0.0002000500   -0.0000080400
   0.0000177100    0.0001992700    0.0000710500
   0.0000448100   -0.0000003300    0.0000313100
  -0.0003738800   -0.0000255300   -0.0016526800
   0.0003653300   -0.0000021600    0.0000265800
  -0.0003725300    0.0000326600    0.0017120700
  -0.0004233600    0.0000021600   -0.0000389000
   0.0003314300    0.0001675300    0.0001758500
   0.0003396500   -0.0001690400   -0.0002503700
   0.0000211700   -0.0002000500    0.0000080400
   0.0000177100    0.0001992700   -0.0000710500
   0.0000448100   -0.0000003300   -0.0000313100
  -0.0003738800   -0.0000255300    0.0016526800
   0.0003653300   -0.0000021600   -0.0000265800
  -0.0003725300    0.0000326600   -0.0017120700

37   
  0.0000000000000000   0.0000000000000000   0.0100000000000000
   0.0005083700    0.0002935100   -0.0032055700
   0.0000000000   -0.0000245100   -0.0006261100
  -0.0005083700    0.0002935100   -0.0032055700
   0.0000000000    0.0007566000   -0.0016910100
  -0.0000212200    0.0000122500   -0.0006261100
   0.0000212200    0.0000122500   -0.0006261100
   0.0006552400   -0.0003783000   -0.0016910100
  -0.0006552400   -0.0003783000   -0.0016910100
   0.0000000000   -0.0005870100   -0.0032055700
  -0.0004877600   -0.0002816100   -0.0031536400
   0.0000000000    0.0000573800   -0.0005697900
   0.0004877600   -0.0002816100   -0.0031536400
   0.0000000000   -0.0007658200   -0.0016548800
   0.0000496900   -0.0000286900   -0.0005697900
  -0.0000496900   -0.0000286900   -0.0005697900
  -0.0006632200    0.0003829100   -0.0016548800
   0.0006632200    0.0003829100   -0.0016548800
   0.0000000000    0.0005632100   -0.0031536400
   0.0000000000    0.0040960900    0.0091244000
  -0.0016883300   -0.0009747600    0.0015021000
   0.0016883300   -0.0009747600    0.0015021000
   0.0010236200    0.0005909900    0.0011652500
  -0.0010236200    0.0005909900    0.0011652500
   0.0000000000    0.0019495200    0.0015021000
   0.0035473200   -0.0020480500    0.0091244000
   0.0000000000   -0.0011819800    0.0011652500
  -0.0035473200   -0.0020480500    0.0091244000
   0.0000000000   -0.0037260300    0.0088446400
   0.0016871800    0.0009740900    0.0015034100
  -0.0016871800    0.0009740900    0.0015034100
  -0.0009929900   -0.0005733000    0.0011919900
   0.0009929900   -0.0005733000    0.0011919900
   0.0000000000   -0.0019481800    0.0015034100
  -0.0032268300    0.0018630100    0.0088446400
   0.0000000000    0.0011466000    0.0011919900
   0.0032268300    0.0018630100    0.0088446400
   0.0000000000    0.0000000000   -0.0870250200
  -0.0000268000    0.0000025500   -0.0024057800
   0.0000268000    0.0000025500   -0.0024057800
   0.0000111900   -0.0000244800   -0.0024057800
  -0.0000111900   -0.0000244800   -0.0024057800
   0.0000000000    0.0000000000   -0.0010182400
  -0.0000156000    0.0000219300   -0.0024057800
   0.0000000000    0.0000000000   -0.0010190000
   0.0000156000    0.0000219300   -0.0024057800
   0.0000000000    0.0000000000    0.0021754900
   0.0000000400    0.0000001700    0.0008514200
  -0.0000000400    0.0000001700    0.0008514200
  -0.0000001700   -0.0000000600    0.0008514200
   0.0000001700   -0.0000000600    0.0008514200
   0.0000000000    0.0000000000    0.0005174000
  -0.0000001300   -0.0000001200    0.0008514200
   0.0000000000    0.0000000000    0.0008413700
   0.0000001300   -0.0000001200    0.0008514200
  -0.0066457800   -0.0038369400    0.0052656100
   0.0000000000    0.0000855200   -0.0003902400
   0.0066457800   -0.0038369400    0.0052656100
   0.0000000000   -0.0045640100    0.0001786300
   0.0000740700   -0.0000427600   -0.0003902400
  -0.0000740700   -0.0000427600   -0.0003902400
  -0.0039525500    0.0022820000    0.0001786300
   0.0039525500    0.0022820000    0.0001786300
   0.0000000000    0.0076738900    0.0052656100
   0.0067108300    0.0038745000    0.0053938800
   0.0000000000   -0.0000855600   -0.0003199900
  -0.0067108300    0.0038745000    0.0053938800
   0.0000000000    0.0046061900    0.0002480000
  -0.0000741000    0.0000427800   -0.0003199900
   0.0000741000    0.0000427800   -0.0003199900
   0.0039890800   -0.0023030900    0.0002480000
  -0.0039890800   -0.0023030900    0.0002480000
   0.0000000000   -0.0077490000    0.0053938800
   0.0000000000    0.0000573200    0.0033923900
  -0.0008324500   -0.0004806100    0.0006520400
   0.0008324500   -0.0004806100    0.0006520400
   0.0003624400    0.0002092500    0.0004777100
  -0.0003624400    0.0002092500    0.0004777100
   0.0000000000    0.0009612300    0.0006520400
   0.0000496400   -0.0000286600    0.0033923900
   0.0000000000   -0.0004185100    0.0004777100
  -0.0000496400   -0.0000286600    0.0033923900
   0.0000000000   -0.0000601700    0.0033211800
   0.0008359500    0.0004826300    0.0005761000
  -0.0008359500    0.0004826300    0.0005761000
  -0.0003615800   -0.0002087600    0.0003919400
   0.0003615800   -0.0002087600    0.0003919400
   0.0000000000   -0.0009652700    0.0005761000
  -0.0000521100    0.0000300800    0.0033211800
   0.0000000000    0.0004175200    0.0003919400
   0.0000521100    0.0000300800    0.0033211800

55   
  0.0100000000000000   0.0000000000000000   0.0000000000000000
   0.0170988500    0.0000161900    0.0000381400
  -0.0040665700    0.0017532300    0.0030317700
  -0.0040610500   -0.0017430000   -0.0029282400
   0.0007212100    0.0039566600   -0.0023862700
   0.0007263800   -0.0039618600    0.0024713400
  -0.0011350100   -0.0000069400    0.0000367500
   0.0002634600    0.0012885200    0.0005886600
  -0.0006349500    0.0000005800    0.0000414900
   0.0002273100   -0.0012974900   -0.0005226700
   0.0005448200    0.0000025800   -0.0000387500
  -0.0002110600    0.0002391600   -0.0001997000
  -0.0002223100   -0.0002278100    0.0001333500
   0.0002886500    0.0001631800   -0.0001204900
   0.0002931100   -0.0001655800    0.0000521300
  -0.0006467000   -0.0000060900   -0.0000331100
  -0.0000226800    0.0002390800   -0.0002898900
  -0.0000280500    0.0000006200   -0.0000336100
  -0.0000239400   -0.0002424400    0.0002219000
   0.0012192300    0.0012924600    0.0016930600
   0.0012303900   -0.0012917400   -0.0016347100
  -0.0022185200    0.0000081900    0.0000287600
   0.0000811900    0.0013195500    0.0008574600
   0.0000179000    0.0000054400    0.0000355100
   0.0000787900   -0.0013368600   -0.0008036300
   0.0034651700    0.0000049200    0.0000304200
  -0.0018237400    0.0010610000   -0.0011530300
  -0.0018280200   -0.0010653700    0.0012162100
   0.0196270900   -0.0033653600    0.0004009500
   0.0212098000    0.0042986000    0.0000411300
  -0.0044028200   -0.0000079600   -0.0000376200
  -0.0014935500    0.0016682700    0.0001153400
   0.0030090500   -0.0000007200   -0.0000441600
  -0.0015090000   -0.0016888600   -0.0001811500
   0.0137901100   -0.0000219700   -0.0000113300
  -0.0017888200    0.0027813000   -0.0005165300
  -0.0017829100   -0.0027485200    0.0004324600
   0.0015782500    0.0020106200   -0.0066715100
   0.0015662100   -0.0020176800    0.0066866300
   0.0004843900    0.0000008800    0.0000042500
   0.0019219300   -0.0010979900   -0.0039495300
  -0.0019170000   -0.0000147800   -0.0000206900
   0.0019418500    0.0011063800    0.0039919300
   0.0000218700    0.0000121000   -0.0000144300
  -0.0000632400   -0.0003153600   -0.0000708900
  -0.0000604800    0.0003164000    0.0000754000
  -0.0003658900    0.0000307700   -0.0000410700
  -0.0003792900   -0.0000261600    0.0000600200
   0.0003629300   -0.0000017200   -0.0000021200
   0.0003344100   -0.0001654700    0.0008326100
  -0.0004204600   -0.0000081000    0.0000095800
   0.0003348700    0.0001677900   -0.0008354200
   0.0000474000    0.0000007700    0.0000007100
   0.0000182300   -0.0001979700    0.0003595700
   0.0000174000    0.0001995900   -0.0003640900
  -0.0888532600   -0.0011437600   -0.0004094000
   0.0064112500   -0.0024593700   -0.0007069100
   0.0063547800    0.0024375300    0.0006797700
  -0.0009809700   -0.0066633100    0.0007809100
  -0.0010028500    0.0067439100   -0.0008206200
   0.0010219100    0.0000062500   -0.0000030700
  -0.0010060500   -0.0018124900    0.0000984900
   0.0010163100   -0.0000013300   -0.0000048400
  -0.0009731500    0.0018088300   -0.0001146500
  -0.0015657200   -0.0000021700    0.0000196100
   0.0009728600    0.0003938900    0.0008287100
   0.0009787800   -0.0004076100   -0.0008197500
  -0.0004444400   -0.0004167100   -0.0000167800
  -0.0004561100    0.0004311400    0.0000298800
   0.0012437800    0.0000109800    0.0000121200
  -0.0004504500   -0.0012245900    0.0007978500
   0.0012433500   -0.0000068900   -0.0000009700
  -0.0004508000    0.0012214600   -0.0007822000
   0.0094622400   -0.0086503300    0.0137545400
   0.0094856900    0.0087524400   -0.0139266700
   0.0021086900    0.0000015900   -0.0000024800
   0.0009920200   -0.0006392300    0.0002216400
  -0.0021853400   -0.0000002100   -0.0000011700
   0.0009941900    0.0006504600   -0.0002204300
  -0.0055979200    0.0000633000    0.0000420100
   0.0002008200   -0.0013865400   -0.0005012600
   0.0002082900    0.0013738500    0.0005005100
  -0.0002941300    0.0000267800   -0.0003406000
  -0.0003026600   -0.0000360000    0.0003462000
   0.0005540600   -0.0000013900    0.0000027500
   0.0001754800   -0.0002211900    0.0000463000
  -0.0003098700   -0.0000044300   -0.0000073700
   0.0001770800    0.0002236800   -0.0000604200
  -0.0002510000    0.0000052500   -0.0000033700
   0.0000485300   -0.0002037600    0.0005226100
   0.0000584000    0.0002089900   -0.0005237900

55   
  0.0000000000000000   0.0000000000000000   0.0100000000000000
   0.0000000000    0.0000000000    0.0322026300
   0.0031318100   -0.0013393400    0.0012950500
  -0.0031318100   -0.0013393400    0.0012950500
  -0.0004060000    0.0033819000    0.0012950500
   0.0004060000    0.0033819000    0.0012950500
   0.0000000000    0.0000000000    0.0012506400
   0.0027258000   -0.0020425600    0.0012950500
   0.0000000000    0.0000000000    0.0013386900
  -0.0027258000   -0.0020425600    0.0012950500
   0.0000000000    0.0000000000   -0.0039557200
   0.0006104500    0.0003950000   -0.0026324700
  -0.0006104500    0.0003950000   -0.0026324700
  -0.0006473000    0.0003311700   -0.0026324700
   0.0006473000    0.0003311700   -0.0026324700
   0.0000000000    0.0000000000   -0.0018799200
  -0.0000368500   -0.0007261700   -0.0026324700
   0.0000000000    0.0000000000   -0.0019570600
   0.0000368500   -0.0007261700   -0.0026324700
   0.0011301500   -0.0006525000   -0.0037116400
  -0.0011301500   -0.0006525000   -0.0037116400
   0.0000000000   -0.0001758200   -0.0015819600
   0.0001522600    0.0000879100   -0.0015819600
   0.0000000000   -0.0014695800   -0.0028913800
  -0.0001522600    0.0000879100   -0.0015819600
   0.0000000000    0.0013049900   -0.0037116400
  -0.0012727000    0.0007347900   -0.0028913800
   0.0012727000    0.0007347900   -0.0028913800
  -0.0040967300    0.0023652500    0.0171234400
   0.0040967300    0.0023652500    0.0171234400
   0.0000000000   -0.0001901600    0.0020733000
   0.0001646800    0.0000950800    0.0020733000
   0.0000000000   -0.0004898800    0.0028043200
  -0.0001646800    0.0000950800    0.0020733000
   0.0000000000   -0.0047305000    0.0171234400
  -0.0004242500    0.0002449400    0.0028043200
   0.0004242500    0.0002449400    0.0028043200
  -0.0031220600   -0.0018025200    0.0053374200
   0.0031220600   -0.0018025200    0.0053374200
   0.0000000000    0.0000004500   -0.0003574100
  -0.0002542800    0.0001468100    0.0002004300
   0.0000000000    0.0036050400    0.0053374200
   0.0002542800    0.0001468100    0.0002004300
   0.0000000000   -0.0002936200    0.0002004300
  -0.0000003900   -0.0000002200   -0.0003574100
   0.0000003900   -0.0000002200   -0.0003574100
   0.0016681200    0.0009630900    0.0033407800
  -0.0016681200    0.0009630900    0.0033407800
   0.0000000000    0.0000423200    0.0004369400
   0.0002111900   -0.0001219300    0.0006132800
   0.0000000000   -0.0019261700    0.0033407800
  -0.0002111900   -0.0001219300    0.0006132800
   0.0000000000    0.0002438600    0.0006132800
  -0.0000366500   -0.0000211600    0.0004369400
   0.0000366500   -0.0000211600    0.0004369400
   0.0000000000    0.0000000000   -0.1035704700
   0.0006791500   -0.0005139000   -0.0029317400
  -0.0006791500   -0.0005139000   -0.0029317400
   0.0001054800    0.0008451100   -0.0029317400
  -0.0001054800    0.0008451100   -0.0029317400
   0.0000000000    0.0000000000   -0.0014514400
   0.0007846300   -0.0003312100   -0.0029317400
   0.0000000000    0.0000000000   -0.0014563900
  -0.0007846300   -0.0003312100   -0.0029317400
   0.0000000000    0.0000000000    0.0030048800
   0.0008161500    0.0004436400    0.0021438000
  -0.0008161500    0.0004436400    0.0021438000
  -0.0007922800    0.0004849900    0.0021438000
   0.0007922800    0.0004849900    0.0021438000
   0.0000000000    0.0000000000    0.0014543300
   0.0000238800   -0.0009286300    0.0021438000
   0.0000000000    0.0000000000    0.0014593500
  -0.0000238800   -0.0009286300    0.0021438000
   0.0137715400   -0.0079510000    0.0026287300
  -0.0137715400   -0.0079510000    0.0026287300