phonopy:
  version: "2.21.2"
  frequency_unit_conversion_factor: 15.633302
  symmetry_tolerance: 1.00000e-05
  configuration:
    force_constants: "WRITE"
    dim: "3 0 0 0 3 0 0 0 1"
    full_force_constants: ".TRUE."

physical_unit:
  atomic_mass: "AMU"
  length: "angstrom"
  force_constants: "eV/angstrom^2"

space_group:
  type: "P6_3/mmc"
  number: 194
  Hall_symbol: "-P 6c 2c"

supercell_matrix:
- [   3,   0,   0 ]
- [   0,   3,   0 ]
- [   0,   0,   1 ]

primitive_cell:
  lattice:
  - [     3.819441950000000,     0.000000000000000,     0.000000000000000 ] # a
  - [    -1.909720980000000,     3.307733760000000,     0.000000000000000 ] # b
  - [     0.000000000000000,     0.000000000000000,    14.149111950000000 ] # c
  points:
  - symbol: Er # 1
    coordinates: [  0.666666670000000,  0.333333330000000,  0.902575290000000 ]
    mass: 167.259000
  - symbol: Er # 2
    coordinates: [  0.666666670000000,  0.333333330000000,  0.597424710000000 ]
    mass: 167.259000
  - symbol: Er # 3
    coordinates: [  0.333333330000000,  0.666666670000000,  0.402575290000000 ]
    mass: 167.259000
  - symbol: Er # 4
    coordinates: [  0.333333330000000,  0.666666670000000,  0.097424710000000 ]
    mass: 167.259000
  - symbol: Te # 5
    coordinates: [  0.000000000000000,  0.000000000000000,  0.250000000000000 ]
    mass: 127.600000
  - symbol: Te # 6
    coordinates: [  0.000000000000000,  0.000000000000000,  0.750000000000000 ]
    mass: 127.600000
  - symbol: O  # 7
    coordinates: [  0.666666670000000,  0.333333330000000,  0.060230050000000 ]
    mass: 15.999400
  - symbol: O  # 8
    coordinates: [  0.666666670000000,  0.333333330000000,  0.439769950000000 ]
    mass: 15.999400
  - symbol: O  # 9
    coordinates: [  0.333333330000000,  0.666666670000000,  0.939769950000000 ]
    mass: 15.999400
  - symbol: O  # 10
    coordinates: [  0.333333330000000,  0.666666670000000,  0.560230050000000 ]
    mass: 15.999400
  reciprocal_lattice: # without 2pi
  - [     0.261818352809368,     0.151160896731027,     0.000000000000000 ] # a*
  - [     0.000000000000000,     0.302321792670520,     0.000000000000000 ] # b*
  - [     0.000000000000000,     0.000000000000000,     0.070675813685961 ] # c*

unit_cell:
  lattice:
  - [     3.819441950000000,     0.000000000000000,     0.000000000000000 ] # a
  - [    -1.909720980000000,     3.307733760000000,     0.000000000000000 ] # b
  - [     0.000000000000000,     0.000000000000000,    14.149111950000000 ] # c
  points:
  - symbol: Er # 1
    coordinates: [  0.666666670000000,  0.333333330000000,  0.902575290000000 ]
    mass: 167.259000
    reduced_to: 1
  - symbol: Er # 2
    coordinates: [  0.666666670000000,  0.333333330000000,  0.597424710000000 ]
    mass: 167.259000
    reduced_to: 2
  - symbol: Er # 3
    coordinates: [  0.333333330000000,  0.666666670000000,  0.402575290000000 ]
    mass: 167.259000
    reduced_to: 3
  - symbol: Er # 4
    coordinates: [  0.333333330000000,  0.666666670000000,  0.097424710000000 ]
    mass: 167.259000
    reduced_to: 4
  - symbol: Te # 5
    coordinates: [  0.000000000000000,  0.000000000000000,  0.250000000000000 ]
    mass: 127.600000
    reduced_to: 5
  - symbol: Te # 6
    coordinates: [  0.000000000000000,  0.000000000000000,  0.750000000000000 ]
    mass: 127.600000
    reduced_to: 6
  - symbol: O  # 7
    coordinates: [  0.666666670000000,  0.333333330000000,  0.060230050000000 ]
    mass: 15.999400
    reduced_to: 7
  - symbol: O  # 8
    coordinates: [  0.666666670000000,  0.333333330000000,  0.439769950000000 ]
    mass: 15.999400
    reduced_to: 8
  - symbol: O  # 9
    coordinates: [  0.333333330000000,  0.666666670000000,  0.939769950000000 ]
    mass: 15.999400
    reduced_to: 9
  - symbol: O  # 10
    coordinates: [  0.333333330000000,  0.666666670000000,  0.560230050000000 ]
    mass: 15.999400
    reduced_to: 10

supercell:
  lattice:
  - [    11.458325850000000,     0.000000000000000,     0.000000000000000 ] # a
  - [    -5.729162940000000,     9.923201280000001,     0.000000000000000 ] # b
  - [     0.000000000000000,     0.000000000000000,    14.149111950000000 ] # c
  points:
  - symbol: Er # 1
    coordinates: [  0.222222223333333,  0.111111110000000,  0.902575290000000 ]
    mass: 167.259000
    reduced_to: 1
  - symbol: Er # 2
    coordinates: [  0.555555556666667,  0.111111110000000,  0.902575290000000 ]
    mass: 167.259000
    reduced_to: 1
  - symbol: Er # 3
    coordinates: [  0.888888890000000,  0.111111110000000,  0.902575290000000 ]
    mass: 167.259000
    reduced_to: 1
  - symbol: Er # 4
    coordinates: [  0.222222223333333,  0.444444443333333,  0.902575290000000 ]
    mass: 167.259000
    reduced_to: 1
  - symbol: Er # 5
    coordinates: [  0.555555556666667,  0.444444443333333,  0.902575290000000 ]
    mass: 167.259000
    reduced_to: 1
  - symbol: Er # 6
    coordinates: [  0.888888890000000,  0.444444443333333,  0.902575290000000 ]
    mass: 167.259000
    reduced_to: 1
  - symbol: Er # 7
    coordinates: [  0.222222223333333,  0.777777776666667,  0.902575290000000 ]
    mass: 167.259000
    reduced_to: 1
  - symbol: Er # 8
    coordinates: [  0.555555556666667,  0.777777776666667,  0.902575290000000 ]
    mass: 167.259000
    reduced_to: 1
  - symbol: Er # 9
    coordinates: [  0.888888890000000,  0.777777776666667,  0.902575290000000 ]
    mass: 167.259000
    reduced_to: 1
  - symbol: Er # 10
    coordinates: [  0.222222223333333,  0.111111110000000,  0.597424710000000 ]
    mass: 167.259000
    reduced_to: 10
  - symbol: Er # 11
    coordinates: [  0.555555556666667,  0.111111110000000,  0.597424710000000 ]
    mass: 167.259000
    reduced_to: 10
  - symbol: Er # 12
    coordinates: [  0.888888890000000,  0.111111110000000,  0.597424710000000 ]
    mass: 167.259000
    reduced_to: 10
  - symbol: Er # 13
    coordinates: [  0.222222223333333,  0.444444443333333,  0.597424710000000 ]
    mass: 167.259000
    reduced_to: 10
  - symbol: Er # 14
    coordinates: [  0.555555556666667,  0.444444443333333,  0.597424710000000 ]
    mass: 167.259000
    reduced_to: 10
  - symbol: Er # 15
    coordinates: [  0.888888890000000,  0.444444443333333,  0.597424710000000 ]
    mass: 167.259000
    reduced_to: 10
  - symbol: Er # 16
    coordinates: [  0.222222223333333,  0.777777776666667,  0.597424710000000 ]
    mass: 167.259000
    reduced_to: 10
  - symbol: Er # 17
    coordinates: [  0.555555556666667,  0.777777776666667,  0.597424710000000 ]
    mass: 167.259000
    reduced_to: 10
  - symbol: Er # 18
    coordinates: [  0.888888890000000,  0.777777776666667,  0.597424710000000 ]
    mass: 167.259000
    reduced_to: 10
  - symbol: Er # 19
    coordinates: [  0.111111110000000,  0.222222223333333,  0.402575290000000 ]
    mass: 167.259000
    reduced_to: 19
  - symbol: Er # 20
    coordinates: [  0.444444443333333,  0.222222223333333,  0.402575290000000 ]
    mass: 167.259000
    reduced_to: 19
  - symbol: Er # 21
    coordinates: [  0.777777776666667,  0.222222223333333,  0.402575290000000 ]
    mass: 167.259000
    reduced_to: 19
  - symbol: Er # 22
    coordinates: [  0.111111110000000,  0.555555556666667,  0.402575290000000 ]
    mass: 167.259000
    reduced_to: 19
  - symbol: Er # 23
    coordinates: [  0.444444443333333,  0.555555556666667,  0.402575290000000 ]
    mass: 167.259000
    reduced_to: 19
  - symbol: Er # 24
    coordinates: [  0.777777776666667,  0.555555556666667,  0.402575290000000 ]
    mass: 167.259000
    reduced_to: 19
  - symbol: Er # 25
    coordinates: [  0.111111110000000,  0.888888890000000,  0.402575290000000 ]
    mass: 167.259000
    reduced_to: 19
  - symbol: Er # 26
    coordinates: [  0.444444443333333,  0.888888890000000,  0.402575290000000 ]
    mass: 167.259000
    reduced_to: 19
  - symbol: Er # 27
    coordinates: [  0.777777776666667,  0.888888890000000,  0.402575290000000 ]
    mass: 167.259000
    reduced_to: 19
  - symbol: Er # 28
    coordinates: [  0.111111110000000,  0.222222223333333,  0.097424710000000 ]
    mass: 167.259000
    reduced_to: 28
  - symbol: Er # 29
    coordinates: [  0.444444443333333,  0.222222223333333,  0.097424710000000 ]
    mass: 167.259000
    reduced_to: 28
  - symbol: Er # 30
    coordinates: [  0.777777776666667,  0.222222223333333,  0.097424710000000 ]
    mass: 167.259000
    reduced_to: 28
  - symbol: Er # 31
    coordinates: [  0.111111110000000,  0.555555556666667,  0.097424710000000 ]
    mass: 167.259000
    reduced_to: 28
  - symbol: Er # 32
    coordinates: [  0.444444443333333,  0.555555556666667,  0.097424710000000 ]
    mass: 167.259000
    reduced_to: 28
  - symbol: Er # 33
    coordinates: [  0.777777776666667,  0.555555556666667,  0.097424710000000 ]
    mass: 167.259000
    reduced_to: 28
  - symbol: Er # 34
    coordinates: [  0.111111110000000,  0.888888890000000,  0.097424710000000 ]
    mass: 167.259000
    reduced_to: 28
  - symbol: Er # 35
    coordinates: [  0.444444443333333,  0.888888890000000,  0.097424710000000 ]
    mass: 167.259000
    reduced_to: 28
  - symbol: Er # 36
    coordinates: [  0.777777776666667,  0.888888890000000,  0.097424710000000 ]
    mass: 167.259000
    reduced_to: 28
  - symbol: Te # 37
    coordinates: [  0.000000000000000,  0.000000000000000,  0.250000000000000 ]
    mass: 127.600000
    reduced_to: 37
  - symbol: Te # 38
    coordinates: [  0.333333333333333,  0.000000000000000,  0.250000000000000 ]
    mass: 127.600000
    reduced_to: 37
  - symbol: Te # 39
    coordinates: [  0.666666666666667,  0.000000000000000,  0.250000000000000 ]
    mass: 127.600000
    reduced_to: 37
  - symbol: Te # 40
    coordinates: [  0.000000000000000,  0.333333333333333,  0.250000000000000 ]
    mass: 127.600000
    reduced_to: 37
  - symbol: Te # 41
    coordinates: [  0.333333333333333,  0.333333333333333,  0.250000000000000 ]
    mass: 127.600000
    reduced_to: 37
  - symbol: Te # 42
    coordinates: [  0.666666666666667,  0.333333333333333,  0.250000000000000 ]
    mass: 127.600000
    reduced_to: 37
  - symbol: Te # 43
    coordinates: [  0.000000000000000,  0.666666666666667,  0.250000000000000 ]
    mass: 127.600000
    reduced_to: 37
  - symbol: Te # 44
    coordinates: [  0.333333333333333,  0.666666666666667,  0.250000000000000 ]
    mass: 127.600000
    reduced_to: 37
  - symbol: Te # 45
    coordinates: [  0.666666666666667,  0.666666666666667,  0.250000000000000 ]
    mass: 127.600000
    reduced_to: 37
  - symbol: Te # 46
    coordinates: [  0.000000000000000,  0.000000000000000,  0.750000000000000 ]
    mass: 127.600000
    reduced_to: 46
  - symbol: Te # 47
    coordinates: [  0.333333333333333,  0.000000000000000,  0.750000000000000 ]
    mass: 127.600000
    reduced_to: 46
  - symbol: Te # 48
    coordinates: [  0.666666666666667,  0.000000000000000,  0.750000000000000 ]
    mass: 127.600000
    reduced_to: 46
  - symbol: Te # 49
    coordinates: [  0.000000000000000,  0.333333333333333,  0.750000000000000 ]
    mass: 127.600000
    reduced_to: 46
  - symbol: Te # 50
    coordinates: [  0.333333333333333,  0.333333333333333,  0.750000000000000 ]
    mass: 127.600000
    reduced_to: 46
  - symbol: Te # 51
    coordinates: [  0.666666666666667,  0.333333333333333,  0.750000000000000 ]
    mass: 127.600000
    reduced_to: 46
  - symbol: Te # 52
    coordinates: [  0.000000000000000,  0.666666666666667,  0.750000000000000 ]
    mass: 127.600000
    reduced_to: 46
  - symbol: Te # 53
    coordinates: [  0.333333333333333,  0.666666666666667,  0.750000000000000 ]
    mass: 127.600000
    reduced_to: 46
  - symbol: Te # 54
    coordinates: [  0.666666666666667,  0.666666666666667,  0.750000000000000 ]
    mass: 127.600000
    reduced_to: 46
  - symbol: O  # 55
    coordinates: [  0.222222223333333,  0.111111110000000,  0.060230050000000 ]
    mass: 15.999400
    reduced_to: 55
  - symbol: O  # 56
    coordinates: [  0.555555556666667,  0.111111110000000,  0.060230050000000 ]
    mass: 15.999400
    reduced_to: 55
  - symbol: O  # 57
    coordinates: [  0.888888890000000,  0.111111110000000,  0.060230050000000 ]
    mass: 15.999400
    reduced_to: 55
  - symbol: O  # 58
    coordinates: [  0.222222223333333,  0.444444443333333,  0.060230050000000 ]
    mass: 15.999400
    reduced_to: 55
  - symbol: O  # 59
    coordinates: [  0.555555556666667,  0.444444443333333,  0.060230050000000 ]
    mass: 15.999400
    reduced_to: 55
  - symbol: O  # 60
    coordinates: [  0.888888890000000,  0.444444443333333,  0.060230050000000 ]
    mass: 15.999400
    reduced_to: 55
  - symbol: O  # 61
    coordinates: [  0.222222223333333,  0.777777776666667,  0.060230050000000 ]
    mass: 15.999400
    reduced_to: 55
  - symbol: O  # 62
    coordinates: [  0.555555556666667,  0.777777776666667,  0.060230050000000 ]
    mass: 15.999400
    reduced_to: 55
  - symbol: O  # 63
    coordinates: [  0.888888890000000,  0.777777776666667,  0.060230050000000 ]
    mass: 15.999400
    reduced_to: 55
  - symbol: O  # 64
    coordinates: [  0.222222223333333,  0.111111110000000,  0.439769950000000 ]
    mass: 15.999400
    reduced_to: 64
  - symbol: O  # 65
    coordinates: [  0.555555556666667,  0.111111110000000,  0.439769950000000 ]
    mass: 15.999400
    reduced_to: 64
  - symbol: O  # 66
    coordinates: [  0.888888890000000,  0.111111110000000,  0.439769950000000 ]
    mass: 15.999400
    reduced_to: 64
  - symbol: O  # 67
    coordinates: [  0.222222223333333,  0.444444443333333,  0.439769950000000 ]
    mass: 15.999400
    reduced_to: 64
  - symbol: O  # 68
    coordinates: [  0.555555556666667,  0.444444443333333,  0.439769950000000 ]
    mass: 15.999400
    reduced_to: 64
  - symbol: O  # 69
    coordinates: [  0.888888890000000,  0.444444443333333,  0.439769950000000 ]
    mass: 15.999400
    reduced_to: 64
  - symbol: O  # 70
    coordinates: [  0.222222223333333,  0.777777776666667,  0.439769950000000 ]
    mass: 15.999400
    reduced_to: 64
  - symbol: O  # 71
    coordinates: [  0.555555556666667,  0.777777776666667,  0.439769950000000 ]
    mass: 15.999400
    reduced_to: 64
  - symbol: O  # 72
    coordinates: [  0.888888890000000,  0.777777776666667,  0.439769950000000 ]
    mass: 15.999400
    reduced_to: 64
  - symbol: O  # 73
    coordinates: [  0.111111110000000,  0.222222223333333,  0.939769950000000 ]
    mass: 15.999400
    reduced_to: 73
  - symbol: O  # 74
    coordinates: [  0.444444443333333,  0.222222223333333,  0.939769950000000 ]
    mass: 15.999400
    reduced_to: 73
  - symbol: O  # 75
    coordinates: [  0.777777776666667,  0.222222223333333,  0.939769950000000 ]
    mass: 15.999400
    reduced_to: 73
  - symbol: O  # 76
    coordinates: [  0.111111110000000,  0.555555556666667,  0.939769950000000 ]
    mass: 15.999400
    reduced_to: 73
  - symbol: O  # 77
    coordinates: [  0.444444443333333,  0.555555556666667,  0.939769950000000 ]
    mass: 15.999400
    reduced_to: 73
  - symbol: O  # 78
    coordinates: [  0.777777776666667,  0.555555556666667,  0.939769950000000 ]
    mass: 15.999400
    reduced_to: 73
  - symbol: O  # 79
    coordinates: [  0.111111110000000,  0.888888890000000,  0.939769950000000 ]
    mass: 15.999400
    reduced_to: 73
  - symbol: O  # 80
    coordinates: [  0.444444443333333,  0.888888890000000,  0.939769950000000 ]
    mass: 15.999400
    reduced_to: 73
  - symbol: O  # 81
    coordinates: [  0.777777776666667,  0.888888890000000,  0.939769950000000 ]
    mass: 15.999400
    reduced_to: 73
  - symbol: O  # 82
    coordinates: [  0.111111110000000,  0.222222223333333,  0.560230050000000 ]
    mass: 15.999400
    reduced_to: 82
  - symbol: O  # 83
    coordinates: [  0.444444443333333,  0.222222223333333,  0.560230050000000 ]
    mass: 15.999400
    reduced_to: 82
  - symbol: O  # 84
    coordinates: [  0.777777776666667,  0.222222223333333,  0.560230050000000 ]
    mass: 15.999400
    reduced_to: 82
  - symbol: O  # 85
    coordinates: [  0.111111110000000,  0.555555556666667,  0.560230050000000 ]
    mass: 15.999400
    reduced_to: 82
  - symbol: O  # 86
    coordinates: [  0.444444443333333,  0.555555556666667,  0.560230050000000 ]
    mass: 15.999400
    reduced_to: 82
  - symbol: O  # 87
    coordinates: [  0.777777776666667,  0.555555556666667,  0.560230050000000 ]
    mass: 15.999400
    reduced_to: 82
  - symbol: O  # 88
    coordinates: [  0.111111110000000,  0.888888890000000,  0.560230050000000 ]
    mass: 15.999400
    reduced_to: 82
  - symbol: O  # 89
    coordinates: [  0.444444443333333,  0.888888890000000,  0.560230050000000 ]
    mass: 15.999400
    reduced_to: 82
  - symbol: O  # 90
    coordinates: [  0.777777776666667,  0.888888890000000,  0.560230050000000 ]
    mass: 15.999400
    reduced_to: 82
