# epsilon and Z* of atoms 1 2 9 10 11 13 15
   9.75529829    0.00000000    0.00000000    0.00000000    6.94871310    0.00000000    0.00000000    0.00000000    7.75605202 
   1.24725241   -0.12311817   -0.00963111   -0.19992360    1.34912792    0.14040186    0.15832820   -0.01474580    1.26292268 
   1.27355931   -0.01924317   -0.04517144    0.02103878    1.16776260   -0.07886693   -0.02815045   -0.05943548    1.35643278 
  -1.07811811   -0.17318108   -0.34880123    0.26010363   -0.62226927    0.81496253   -0.36394125    0.13449954   -1.78831639 
  -0.24542475    0.29469362   -0.39482365   -0.22882262   -0.94974175    0.35805890   -0.38102202   -0.12158386    0.58469755 
  -0.36337948   -0.75241269   -0.53671516   -0.89433523    1.35606551   -0.28590702   -0.23236354   -0.05743787    0.02183826 
  -0.81654662   -0.10421565    0.09096648    0.02122583   -1.36570722    0.33252107    0.01264639    0.30924833   -0.25741118 
  -0.01734275    0.68792718    0.56899466    0.69620305   -0.93523779    0.11488841    0.18632869    0.14628779   -1.18016371 
