natom:  112
displacements:
- atom:    1
  displacement:
    [   0.0100000000000000,  0.0000000000000000,  0.0000000000000000 ]
- atom:    1
  displacement:
    [  -0.0100000000000000,  0.0000000000000000,  0.0000000000000000 ]
- atom:    1
  displacement:
    [   0.0000000000000000,  0.0100000000000000,  0.0000000000000000 ]
- atom:    1
  displacement:
    [   0.0000000000000000, -0.0100000000000000,  0.0000000000000000 ]
- atom:    1
  displacement:
    [   0.0000000000000000,  0.0000000000000000,  0.0100000000000000 ]
- atom:    1
  displacement:
    [   0.0000000000000000,  0.0000000000000000, -0.0100000000000000 ]
- atom:    5
  displacement:
    [   0.0100000000000000,  0.0000000000000000,  0.0000000000000000 ]
- atom:    5
  displacement:
    [  -0.0100000000000000,  0.0000000000000000,  0.0000000000000000 ]
- atom:    5
  displacement:
    [   0.0000000000000000,  0.0100000000000000,  0.0000000000000000 ]
- atom:    5
  displacement:
    [   0.0000000000000000, -0.0100000000000000,  0.0000000000000000 ]
- atom:    5
  displacement:
    [   0.0000000000000000,  0.0000000000000000,  0.0100000000000000 ]
- atom:    5
  displacement:
    [   0.0000000000000000,  0.0000000000000000, -0.0100000000000000 ]
- atom:   33
  displacement:
    [   0.0100000000000000,  0.0000000000000000,  0.0000000000000000 ]
- atom:   33
  displacement:
    [  -0.0100000000000000,  0.0000000000000000,  0.0000000000000000 ]
- atom:   33
  displacement:
    [   0.0000000000000000,  0.0100000000000000,  0.0000000000000000 ]
- atom:   33
  displacement:
    [   0.0000000000000000, -0.0100000000000000,  0.0000000000000000 ]
- atom:   33
  displacement:
    [   0.0000000000000000,  0.0000000000000000,  0.0100000000000000 ]
- atom:   33
  displacement:
    [   0.0000000000000000,  0.0000000000000000, -0.0100000000000000 ]
- atom:   37
  displacement:
    [   0.0100000000000000,  0.0000000000000000,  0.0000000000000000 ]
- atom:   37
  displacement:
    [  -0.0100000000000000,  0.0000000000000000,  0.0000000000000000 ]
- atom:   37
  displacement:
    [   0.0000000000000000,  0.0100000000000000,  0.0000000000000000 ]
- atom:   37
  displacement:
    [   0.0000000000000000, -0.0100000000000000,  0.0000000000000000 ]
- atom:   37
  displacement:
    [   0.0000000000000000,  0.0000000000000000,  0.0100000000000000 ]
- atom:   37
  displacement:
    [   0.0000000000000000,  0.0000000000000000, -0.0100000000000000 ]
- atom:   41
  displacement:
    [   0.0100000000000000,  0.0000000000000000,  0.0000000000000000 ]
- atom:   41
  displacement:
    [  -0.0100000000000000,  0.0000000000000000,  0.0000000000000000 ]
- atom:   41
  displacement:
    [   0.0000000000000000,  0.0100000000000000,  0.0000000000000000 ]
- atom:   41
  displacement:
    [   0.0000000000000000, -0.0100000000000000,  0.0000000000000000 ]
- atom:   41
  displacement:
    [   0.0000000000000000,  0.0000000000000000,  0.0100000000000000 ]
- atom:   41
  displacement:
    [   0.0000000000000000,  0.0000000000000000, -0.0100000000000000 ]
- atom:   49
  displacement:
    [   0.0100000000000000,  0.0000000000000000,  0.0000000000000000 ]
- atom:   49
  displacement:
    [  -0.0100000000000000,  0.0000000000000000,  0.0000000000000000 ]
- atom:   49
  displacement:
    [   0.0000000000000000,  0.0100000000000000,  0.0000000000000000 ]
- atom:   49
  displacement:
    [   0.0000000000000000, -0.0100000000000000,  0.0000000000000000 ]
- atom:   49
  displacement:
    [   0.0000000000000000,  0.0000000000000000,  0.0100000000000000 ]
- atom:   49
  displacement:
    [   0.0000000000000000,  0.0000000000000000, -0.0100000000000000 ]
- atom:   57
  displacement:
    [   0.0100000000000000,  0.0000000000000000,  0.0000000000000000 ]
- atom:   57
  displacement:
    [  -0.0100000000000000,  0.0000000000000000,  0.0000000000000000 ]
- atom:   57
  displacement:
    [   0.0000000000000000,  0.0100000000000000,  0.0000000000000000 ]
- atom:   57
  displacement:
    [   0.0000000000000000, -0.0100000000000000,  0.0000000000000000 ]
- atom:   57
  displacement:
    [   0.0000000000000000,  0.0000000000000000,  0.0100000000000000 ]
- atom:   57
  displacement:
    [   0.0000000000000000,  0.0000000000000000, -0.0100000000000000 ]
lattice:
- [    13.3173508799999993,     0.0000000000000000,     0.0000000000000000 ] # a
- [     0.0000000000000000,    14.3691311000000006,     0.0000000000000000 ] # b
- [     0.0000000000000000,     0.0000000000000000,    18.0395962599999997 ] # c
atoms:
- symbol: Rb # 1
  position: [  0.0433512400000000,  0.1202045150000000,  0.1612486100000000 ]
  mass: 85.467800
- symbol: Rb # 2
  position: [  0.5433512400000000,  0.1202045150000000,  0.1612486100000000 ]
  mass: 85.467800
- symbol: Rb # 3
  position: [  0.0433512400000000,  0.6202045150000000,  0.1612486100000000 ]
  mass: 85.467800
- symbol: Rb # 4
  position: [  0.5433512400000000,  0.6202045150000000,  0.1612486100000000 ]
  mass: 85.467800
- symbol: Rb # 5
  position: [  0.0559645800000000,  0.2077055200000000,  0.5079652400000000 ]
  mass: 85.467800
- symbol: Rb # 6
  position: [  0.5559645800000000,  0.2077055200000000,  0.5079652400000000 ]
  mass: 85.467800
- symbol: Rb # 7
  position: [  0.0559645800000000,  0.7077055200000000,  0.5079652400000000 ]
  mass: 85.467800
- symbol: Rb # 8
  position: [  0.5559645800000000,  0.7077055200000000,  0.5079652400000000 ]
  mass: 85.467800
- symbol: Rb # 9
  position: [  0.2066487600000000,  0.3797954850000000,  0.6612486100000000 ]
  mass: 85.467800
- symbol: Rb # 10
  position: [  0.7066487600000000,  0.3797954850000000,  0.6612486100000000 ]
  mass: 85.467800
- symbol: Rb # 11
  position: [  0.2066487600000000,  0.8797954850000000,  0.6612486100000000 ]
  mass: 85.467800
- symbol: Rb # 12
  position: [  0.7066487600000000,  0.8797954850000000,  0.6612486100000000 ]
  mass: 85.467800
- symbol: Rb # 13
  position: [  0.1940354200000000,  0.2922944800000000,  0.0079652400000000 ]
  mass: 85.467800
- symbol: Rb # 14
  position: [  0.6940354200000000,  0.2922944800000000,  0.0079652400000000 ]
  mass: 85.467800
- symbol: Rb # 15
  position: [  0.1940354200000000,  0.7922944800000000,  0.0079652400000000 ]
  mass: 85.467800
- symbol: Rb # 16
  position: [  0.6940354200000000,  0.7922944800000000,  0.0079652400000000 ]
  mass: 85.467800
- symbol: Rb # 17
  position: [  0.3059645800000000,  0.0422944800000000,  0.4920347600000000 ]
  mass: 85.467800
- symbol: Rb # 18
  position: [  0.8059645799999999,  0.0422944800000000,  0.4920347600000000 ]
  mass: 85.467800
- symbol: Rb # 19
  position: [  0.3059645800000000,  0.5422944800000000,  0.4920347600000000 ]
  mass: 85.467800
- symbol: Rb # 20
  position: [  0.8059645799999999,  0.5422944800000000,  0.4920347600000000 ]
  mass: 85.467800
- symbol: Rb # 21
  position: [  0.4440354200000000,  0.4577055200000000,  0.9920347600000000 ]
  mass: 85.467800
- symbol: Rb # 22
  position: [  0.9440354200000001,  0.4577055200000000,  0.9920347600000000 ]
  mass: 85.467800
- symbol: Rb # 23
  position: [  0.4440354200000000,  0.9577055200000000,  0.9920347600000000 ]
  mass: 85.467800
- symbol: Rb # 24
  position: [  0.9440354200000001,  0.9577055200000000,  0.9920347600000000 ]
  mass: 85.467800
- symbol: Rb # 25
  position: [  0.4566487600000000,  0.3702045150000000,  0.3387513900000000 ]
  mass: 85.467800
- symbol: Rb # 26
  position: [  0.9566487600000000,  0.3702045150000000,  0.3387513900000000 ]
  mass: 85.467800
- symbol: Rb # 27
  position: [  0.4566487600000000,  0.8702045150000000,  0.3387513900000000 ]
  mass: 85.467800
- symbol: Rb # 28
  position: [  0.9566487600000000,  0.8702045150000000,  0.3387513900000000 ]
  mass: 85.467800
- symbol: Rb # 29
  position: [  0.2933512400000000,  0.1297954850000000,  0.8387513900000000 ]
  mass: 85.467800
- symbol: Rb # 30
  position: [  0.7933512400000000,  0.1297954850000000,  0.8387513900000000 ]
  mass: 85.467800
- symbol: Rb # 31
  position: [  0.2933512400000000,  0.6297954850000000,  0.8387513900000000 ]
  mass: 85.467800
- symbol: Rb # 32
  position: [  0.7933512400000000,  0.6297954850000000,  0.8387513900000000 ]
  mass: 85.467800
- symbol: Se # 33
  position: [  0.1982749950000000,  0.0377858300000000,  0.0149388300000000 ]
  mass: 78.960000
- symbol: Se # 34
  position: [  0.6982749950000000,  0.0377858300000000,  0.0149388300000000 ]
  mass: 78.960000
- symbol: Se # 35
  position: [  0.1982749950000000,  0.5377858300000000,  0.0149388300000000 ]
  mass: 78.960000
- symbol: Se # 36
  position: [  0.6982749950000000,  0.5377858300000000,  0.0149388300000000 ]
  mass: 78.960000
- symbol: Se # 37
  position: [  0.4639849800000000,  0.4370623950000000,  0.6261098200000000 ]
  mass: 78.960000
- symbol: Se # 38
  position: [  0.9639849800000000,  0.4370623950000000,  0.6261098200000000 ]
  mass: 78.960000
- symbol: Se # 39
  position: [  0.4639849800000000,  0.9370623950000000,  0.6261098200000000 ]
  mass: 78.960000
- symbol: Se # 40
  position: [  0.9639849800000000,  0.9370623950000000,  0.6261098200000000 ]
  mass: 78.960000
- symbol: Se # 41
  position: [  0.2623191150000000,  0.4276598850000000,  0.2016998800000000 ]
  mass: 78.960000
- symbol: Se # 42
  position: [  0.7623191149999999,  0.4276598850000000,  0.2016998800000000 ]
  mass: 78.960000
- symbol: Se # 43
  position: [  0.2623191150000000,  0.9276598850000000,  0.2016998800000000 ]
  mass: 78.960000
- symbol: Se # 44
  position: [  0.7623191149999999,  0.9276598850000000,  0.2016998800000000 ]
  mass: 78.960000
- symbol: Se # 45
  position: [  0.2376808850000000,  0.1776598850000000,  0.2983001200000000 ]
  mass: 78.960000
- symbol: Se # 46
  position: [  0.7376808850000001,  0.1776598850000000,  0.2983001200000000 ]
  mass: 78.960000
- symbol: Se # 47
  position: [  0.2376808850000000,  0.6776598850000000,  0.2983001200000000 ]
  mass: 78.960000
- symbol: Se # 48
  position: [  0.7376808850000001,  0.6776598850000000,  0.2983001200000000 ]
  mass: 78.960000
- symbol: Se # 49
  position: [  0.3727781450000000,  0.1852727950000000,  0.6505692199999999 ]
  mass: 78.960000
- symbol: Se # 50
  position: [  0.8727781450000001,  0.1852727950000000,  0.6505692199999999 ]
  mass: 78.960000
- symbol: Se # 51
  position: [  0.3727781450000000,  0.6852727949999999,  0.6505692199999999 ]
  mass: 78.960000
- symbol: Se # 52
  position: [  0.8727781450000001,  0.6852727949999999,  0.6505692199999999 ]
  mass: 78.960000
- symbol: Se # 53
  position: [  0.2860150200000000,  0.0629376050000000,  0.1261098200000000 ]
  mass: 78.960000
- symbol: Se # 54
  position: [  0.7860150200000000,  0.0629376050000000,  0.1261098200000000 ]
  mass: 78.960000
- symbol: Se # 55
  position: [  0.2860150200000000,  0.5629376050000000,  0.1261098200000000 ]
  mass: 78.960000
- symbol: Se # 56
  position: [  0.7860150200000000,  0.5629376050000000,  0.1261098200000000 ]
  mass: 78.960000
- symbol: Se # 57
  position: [  0.0460995600000000,  0.3698668000000000,  0.1642497600000000 ]
  mass: 78.960000
- symbol: Se # 58
  position: [  0.5460995600000000,  0.3698668000000000,  0.1642497600000000 ]
  mass: 78.960000
- symbol: Se # 59
  position: [  0.0460995600000000,  0.8698668000000001,  0.1642497600000000 ]
  mass: 78.960000
- symbol: Se # 60
  position: [  0.5460995600000000,  0.8698668000000001,  0.1642497600000000 ]
  mass: 78.960000
- symbol: Se # 61
  position: [  0.0123191150000000,  0.3223401150000000,  0.7983001199999999 ]
  mass: 78.960000
- symbol: Se # 62
  position: [  0.5123191150000000,  0.3223401150000000,  0.7983001199999999 ]
  mass: 78.960000
- symbol: Se # 63
  position: [  0.0123191150000000,  0.8223401150000000,  0.7983001199999999 ]
  mass: 78.960000
- symbol: Se # 64
  position: [  0.5123191150000000,  0.8223401150000000,  0.7983001199999999 ]
  mass: 78.960000
- symbol: Se # 65
  position: [  0.0360150200000000,  0.1870623950000000,  0.8738901800000000 ]
  mass: 78.960000
- symbol: Se # 66
  position: [  0.5360150200000000,  0.1870623950000000,  0.8738901800000000 ]
  mass: 78.960000
- symbol: Se # 67
  position: [  0.0360150200000000,  0.6870623950000000,  0.8738901800000000 ]
  mass: 78.960000
- symbol: Se # 68
  position: [  0.5360150200000000,  0.6870623950000000,  0.8738901800000000 ]
  mass: 78.960000
- symbol: Se # 69
  position: [  0.3017250050000000,  0.2877858300000000,  0.4850611700000000 ]
  mass: 78.960000
- symbol: Se # 70
  position: [  0.8017250050000000,  0.2877858300000000,  0.4850611700000000 ]
  mass: 78.960000
- symbol: Se # 71
  position: [  0.3017250050000000,  0.7877858300000000,  0.4850611700000000 ]
  mass: 78.960000
- symbol: Se # 72
  position: [  0.8017250050000000,  0.7877858300000000,  0.4850611700000000 ]
  mass: 78.960000
- symbol: Se # 73
  position: [  0.0517250050000000,  0.4622141700000000,  0.5149388300000000 ]
  mass: 78.960000
- symbol: Se # 74
  position: [  0.5517250050000000,  0.4622141700000000,  0.5149388300000000 ]
  mass: 78.960000
- symbol: Se # 75
  position: [  0.0517250050000000,  0.9622141700000000,  0.5149388300000000 ]
  mass: 78.960000
- symbol: Se # 76
  position: [  0.5517250050000000,  0.9622141700000000,  0.5149388300000000 ]
  mass: 78.960000
- symbol: Se # 77
  position: [  0.2960995600000000,  0.3801332000000000,  0.8357502400000000 ]
  mass: 78.960000
- symbol: Se # 78
  position: [  0.7960995600000000,  0.3801332000000000,  0.8357502400000000 ]
  mass: 78.960000
- symbol: Se # 79
  position: [  0.2960995600000000,  0.8801331999999999,  0.8357502400000000 ]
  mass: 78.960000
- symbol: Se # 80
  position: [  0.7960995600000000,  0.8801331999999999,  0.8357502400000000 ]
  mass: 78.960000
- symbol: Se # 81
  position: [  0.1227781450000000,  0.0647272050000000,  0.3494307800000000 ]
  mass: 78.960000
- symbol: Se # 82
  position: [  0.6227781450000001,  0.0647272050000000,  0.3494307800000000 ]
  mass: 78.960000
- symbol: Se # 83
  position: [  0.1227781450000000,  0.5647272050000000,  0.3494307800000000 ]
  mass: 78.960000
- symbol: Se # 84
  position: [  0.6227781450000001,  0.5647272050000000,  0.3494307800000000 ]
  mass: 78.960000
- symbol: Se # 85
  position: [  0.2139849800000000,  0.3129376050000000,  0.3738901800000000 ]
  mass: 78.960000
- symbol: Se # 86
  position: [  0.7139849800000000,  0.3129376050000000,  0.3738901800000000 ]
  mass: 78.960000
- symbol: Se # 87
  position: [  0.2139849800000000,  0.8129376050000000,  0.3738901800000000 ]
  mass: 78.960000
- symbol: Se # 88
  position: [  0.7139849800000000,  0.8129376050000000,  0.3738901800000000 ]
  mass: 78.960000
- symbol: Se # 89
  position: [  0.2039004400000000,  0.1301332000000000,  0.6642497600000000 ]
  mass: 78.960000
- symbol: Se # 90
  position: [  0.7039004400000000,  0.1301332000000000,  0.6642497600000000 ]
  mass: 78.960000
- symbol: Se # 91
  position: [  0.2039004400000000,  0.6301331999999999,  0.6642497600000000 ]
  mass: 78.960000
- symbol: Se # 92
  position: [  0.7039004400000000,  0.6301331999999999,  0.6642497600000000 ]
  mass: 78.960000
- symbol: Se # 93
  position: [  0.4876808850000000,  0.0723401150000000,  0.7016998800000001 ]
  mass: 78.960000
- symbol: Se # 94
  position: [  0.9876808850000001,  0.0723401150000000,  0.7016998800000001 ]
  mass: 78.960000
- symbol: Se # 95
  position: [  0.4876808850000000,  0.5723401150000000,  0.7016998800000001 ]
  mass: 78.960000
- symbol: Se # 96
  position: [  0.9876808850000001,  0.5723401150000000,  0.7016998800000001 ]
  mass: 78.960000
- symbol: Se # 97
  position: [  0.1272218550000000,  0.4352727950000000,  0.8494307800000001 ]
  mass: 78.960000
- symbol: Se # 98
  position: [  0.6272218549999999,  0.4352727950000000,  0.8494307800000001 ]
  mass: 78.960000
- symbol: Se # 99
  position: [  0.1272218550000000,  0.9352727949999999,  0.8494307800000001 ]
  mass: 78.960000
- symbol: Se # 100
  position: [  0.6272218549999999,  0.9352727949999999,  0.8494307800000001 ]
  mass: 78.960000
- symbol: Se # 101
  position: [  0.4539004400000000,  0.1198668000000000,  0.3357502400000000 ]
  mass: 78.960000
- symbol: Se # 102
  position: [  0.9539004400000000,  0.1198668000000000,  0.3357502400000000 ]
  mass: 78.960000
- symbol: Se # 103
  position: [  0.4539004400000000,  0.6198668000000001,  0.3357502400000000 ]
  mass: 78.960000
- symbol: Se # 104
  position: [  0.9539004400000000,  0.6198668000000001,  0.3357502400000000 ]
  mass: 78.960000
- symbol: Se # 105
  position: [  0.3772218550000000,  0.3147272050000000,  0.1505692200000000 ]
  mass: 78.960000
- symbol: Se # 106
  position: [  0.8772218549999999,  0.3147272050000000,  0.1505692200000000 ]
  mass: 78.960000
- symbol: Se # 107
  position: [  0.3772218550000000,  0.8147272050000001,  0.1505692200000000 ]
  mass: 78.960000
- symbol: Se # 108
  position: [  0.8772218549999999,  0.8147272050000001,  0.1505692200000000 ]
  mass: 78.960000
- symbol: Se # 109
  position: [  0.4482749950000000,  0.2122141700000000,  0.9850611700000000 ]
  mass: 78.960000
- symbol: Se # 110
  position: [  0.9482749950000000,  0.2122141700000000,  0.9850611700000000 ]
  mass: 78.960000
- symbol: Se # 111
  position: [  0.4482749950000000,  0.7122141700000000,  0.9850611700000000 ]
  mass: 78.960000
- symbol: Se # 112
  position: [  0.9482749950000000,  0.7122141700000000,  0.9850611700000000 ]
  mass: 78.960000