 112  112
1 1
     2.047732499999999    -0.335123500000000    -0.282862500000000
    -0.335100500000000     1.420215500000000     0.042261500000000
    -0.282901000000000     0.042277500000000     1.889826000000000
1 2
    -0.027717000000000    -0.001174000000000     0.005476500000000
    -0.001173000000000     0.025784000000000     0.006481500000000
     0.005477500000000     0.006482000000000     0.021041000000000
1 3
     0.005391500000000    -0.001998500000000    -0.000410500000000
    -0.001999000000000    -0.043507500000000    -0.004622000000000
    -0.000411500000000    -0.004623000000000    -0.000429000000000
1 4
    -0.013606500000000     0.008537000000000     0.003115000000000
     0.008537500000000    -0.025011000000000    -0.004026500000000
     0.003114500000000    -0.004026500000000     0.004050500000000
1 5
     0.011474000000000    -0.002924500000000    -0.006915500000000
    -0.001317500000000     0.004241000000000     0.002869500000000
     0.003393000000000    -0.010013000000000    -0.036229000000000
1 6
    -0.008372000000000     0.000259000000000    -0.000143500000000
     0.001104000000000     0.001708500000000     0.000028000000000
    -0.002672500000000     0.000675000000000    -0.013656500000000
1 7
     0.003206000000000     0.000505500000000     0.000191000000000
    -0.001041000000000    -0.002287000000000     0.001437000000000
    -0.000914500000000     0.002501000000000    -0.004067500000000
1 8
    -0.003014000000000     0.000078500000000     0.001496000000000
    -0.000429500000000    -0.002538000000000    -0.000833000000000
     0.000110000000000     0.001002000000000    -0.002396000000000
1 9
     0.004166500000000    -0.001612500000000    -0.006649500000000
    -0.001613000000000    -0.001468000000000     0.002962000000000
     0.006649000000000    -0.002962000000000    -0.018327000000000
1 10
    -0.001088500000000     0.000221500000000    -0.000066500000000
     0.000230500000000    -0.001120500000000     0.001579500000000
     0.000066000000000    -0.001580500000000    -0.011380000000000
1 11
     0.000404000000000     0.000265500000000     0.000417000000000
     0.000264500000000     0.001319000000000    -0.002515000000000
    -0.000416000000000     0.002515000000000    -0.009554000000000
1 12
    -0.000384000000000     0.000463000000000    -0.000716000000000
     0.000462500000000     0.001090500000000    -0.002714000000000
     0.000716000000000     0.002714000000000    -0.007228500000000
1 13
    -0.022784000000000    -0.084469500000000     0.089275000000000
    -0.082229500000000    -0.039239500000000     0.111123500000000
     0.092090500000000     0.116761500000000    -0.071982500000000
1 14
    -0.010279500000000     0.005191500000000    -0.010595000000000
     0.010247500000000     0.015043000000000     0.010251000000000
    -0.014138000000000     0.007633500000000     0.011177000000000
1 15
     0.007405000000000     0.019608000000000     0.004199000000000
     0.013223500000000    -0.021515500000000    -0.019197500000000
     0.000212500000000    -0.021359000000000    -0.000245000000000
1 16
    -0.005524500000000    -0.006013000000000    -0.004730500000000
    -0.004417500000000    -0.019258500000000    -0.010033500000000
    -0.002569500000000    -0.003855000000000     0.003409500000000
1 17
    -0.004508000000000     0.009024500000000    -0.008705500000000
     0.001348500000000     0.003110500000000    -0.000476000000000
    -0.010748000000000     0.013104000000000    -0.023088000000000
1 18
    -0.001109000000000    -0.000361000000000     0.001912500000000
    -0.000193000000000     0.002170000000000     0.001176000000000
     0.007771500000000     0.005396000000000    -0.022713500000000
1 19
    -0.000330500000000    -0.006306000000000    -0.000553500000000
     0.000503000000000    -0.002525000000000     0.000010500000000
    -0.000574000000000    -0.009560000000000    -0.006034500000000
1 20
    -0.000091500000000     0.000700500000000     0.001784500000000
     0.000716500000000    -0.002734000000000    -0.001590000000000
    -0.001252000000000    -0.005260000000000    -0.005958000000000
1 21
    -0.006157500000000    -0.002475000000000     0.000972500000000
    -0.000207500000000    -0.002718000000000     0.007500500000000
     0.003010500000000     0.003053000000000     0.008289500000000
1 22
     0.010280000000000     0.001690000000000    -0.005271500000000
     0.002568500000000    -0.014522500000000     0.021299500000000
    -0.002853500000000     0.017725500000000     0.013835500000000
1 23
    -0.040990000000000     0.007395500000000     0.013505500000000
     0.007081500000000    -0.004060500000000    -0.013628000000000
     0.019652000000000    -0.007358500000000    -0.002345500000000
1 24
     0.023766500000000    -0.057766500000000    -0.076796500000000
    -0.068205500000000    -0.055959000000000    -0.150403000000000
    -0.096083000000000    -0.153526500000000    -0.131536000000000
1 25
    -0.009055000000000    -0.004801000000000     0.004057000000000
    -0.001990500000000    -0.000744000000000    -0.011072000000000
    -0.005637000000000    -0.015399500000000     0.007294500000000
1 26
     0.011738500000000     0.015853500000000     0.016610000000000
     0.014017500000000    -0.034836500000000    -0.064220500000000
     0.019271500000000    -0.067025500000000    -0.024011500000000
1 27
    -0.009055500000000     0.001991500000000    -0.005636000000000
     0.004801000000000    -0.000744000000000     0.015400000000000
     0.004056500000000     0.011072500000000     0.007293000000000
1 28
     0.011739000000000    -0.014019500000000     0.019273500000000
    -0.015851500000000    -0.034837000000000     0.067026500000000
     0.016607500000000     0.064220500000000    -0.024012000000000
1 29
    -0.001623500000000    -0.005507500000000     0.015472500000000
    -0.001816000000000     0.009833500000000    -0.007357500000000
     0.009296500000000    -0.001689000000000    -0.021104500000000
1 30
    -0.001623500000000     0.001817500000000    -0.009294000000000
     0.005509000000000     0.009833500000000    -0.001688000000000
    -0.015471000000000    -0.007357000000000    -0.021104000000000
1 31
     0.000405500000000     0.001971500000000     0.000722500000000
    -0.000710500000000    -0.007528500000000     0.001393000000000
     0.003619500000000     0.002798000000000    -0.001631000000000
1 32
     0.000405500000000     0.000712500000000    -0.003623500000000
    -0.001972000000000    -0.007528000000000     0.002793500000000
    -0.000715500000000     0.001398000000000    -0.001631000000000
1 33
    -0.125534500000000     0.034417000000000     0.107731000000000
     0.084599500000000    -0.092173500000000    -0.099464500000000
     0.098499500000000    -0.078050000000000    -0.287217500000000
1 34
     0.026835500000000     0.009584000000000    -0.020632500000000
     0.014676000000000    -0.012970000000000     0.006175500000000
    -0.001104000000000    -0.004771000000000    -0.033636500000000
1 35
    -0.000102000000000     0.003979000000000    -0.002527000000000
    -0.001467500000000     0.017320000000000    -0.003530500000000
    -0.004701500000000    -0.003658000000000    -0.015353500000000
1 36
     0.006520500000000     0.005983000000000     0.014753500000000
    -0.012805000000000     0.002601000000000    -0.025670500000000
     0.000704000000000    -0.000723500000000    -0.007960500000000
1 37
    -0.001072500000000     0.002324000000000    -0.001769500000000
    -0.000346000000000     0.000773500000000     0.000049000000000
     0.002108500000000     0.005115000000000    -0.009380500000000
1 38
    -0.000171500000000    -0.000938000000000    -0.002541500000000
     0.001595500000000     0.002369500000000    -0.000348000000000
     0.001970000000000     0.001161000000000    -0.010996500000000
1 39
     0.000049000000000    -0.000306500000000     0.000438500000000
    -0.000519500000000    -0.002228000000000     0.000587500000000
     0.002541000000000    -0.002374000000000    -0.001677500000000
1 40
    -0.005156000000000    -0.006261000000000     0.002926500000000
     0.000609500000000    -0.002255500000000    -0.000399000000000
     0.000129000000000    -0.006856000000000     0.005941000000000
1 41
     0.002745000000000    -0.003792500000000    -0.003206000000000
    -0.026063500000000    -0.016600000000000    -0.014828500000000
     0.000779000000000    -0.013739000000000     0.000294000000000
1 42
    -0.079290000000000     0.031410500000000     0.050929500000000
     0.022512000000000    -0.036573000000000    -0.067628000000000
     0.010269000000000    -0.011859000000000    -0.034292500000000
1 43
    -0.015690000000000     0.154139000000000    -0.110792500000000
     0.100000500000000    -0.009594500000000     0.038980000000000
    -0.041758500000000    -0.032869500000000     0.014067000000000
1 44
     0.035338500000000    -0.083026000000000     0.069809000000000
     0.018733000000000    -0.039309000000000     0.053916500000000
     0.002569500000000    -0.029240500000000     0.018951500000000
1 45
    -0.215880000000000    -0.020219500000000    -0.160401000000000
     0.003078500000000     0.045852000000000    -0.020708500000000
    -0.169627000000000    -0.073766000000000    -0.055139500000000
1 46
    -0.025596500000000     0.009140500000000     0.013282000000000
     0.019677000000000     0.027377000000000    -0.003104000000000
     0.044818500000000    -0.026457000000000     0.040425000000000
1 47
     0.000869500000000     0.009983500000000     0.001732000000000
    -0.011671500000000    -0.015740500000000    -0.002295500000000
    -0.006238500000000     0.000103000000000     0.007176500000000
1 48
     0.000900000000000    -0.004744500000000     0.001507000000000
    -0.019986000000000    -0.025135500000000     0.005149500000000
    -0.008365000000000     0.001447000000000     0.007162500000000
1 49
    -0.000587000000000    -0.003657500000000    -0.000074500000000
     0.001726500000000    -0.004004000000000     0.000371000000000
    -0.001664500000000    -0.002635500000000     0.002401000000000
1 50
     0.000273000000000     0.001688500000000    -0.000305000000000
     0.000228000000000    -0.003104000000000    -0.000652000000000
    -0.001602500000000     0.000164500000000     0.004809500000000
1 51
    -0.000633000000000    -0.000694000000000     0.000553000000000
    -0.000973000000000     0.004089000000000     0.000227000000000
    -0.000815500000000     0.000291500000000     0.003282500000000
1 52
     0.000690000000000    -0.000181500000000     0.000186000000000
    -0.000508000000000     0.004231500000000     0.000925500000000
     0.000565500000000    -0.002213500000000     0.003032000000000
1 53
    -0.903200000000000     0.151840000000000     0.250500500000000
     0.191744000000000     0.017352500000000    -0.025856000000000
     0.208755000000000    -0.009439500000000     0.050260500000000
1 54
    -0.466702000000000    -0.072796000000000    -0.143580000000000
    -0.113990500000000     0.009052000000000    -0.066108500000000
    -0.047630000000000     0.000787000000000     0.020671000000000
1 55
    -0.005139500000000    -0.001875000000000     0.001872500000000
     0.018135000000000     0.008574000000000    -0.001487000000000
     0.003626000000000     0.002191500000000     0.002197500000000
1 56
     0.006461000000000    -0.051417500000000    -0.002452000000000
     0.014345500000000     0.051740500000000     0.010538500000000
    -0.006630500000000     0.012596000000000     0.003284500000000
1 57
     0.017581500000000    -0.013682000000000     0.002108000000000
    -0.123645500000000    -0.429944000000000    -0.017187500000000
    -0.007144500000000     0.000592500000000    -0.037900000000000
1 58
    -0.019561500000000     0.008518000000000    -0.007384500000000
     0.016997000000000     0.000973000000000     0.016676000000000
     0.005367500000000     0.007786000000000    -0.015746000000000
1 59
     0.003597000000000     0.034224500000000     0.000925000000000
     0.065166500000000    -0.363852000000000     0.011972000000000
    -0.011127500000000     0.021129500000000    -0.016768000000000
1 60
    -0.001870000000000     0.001684500000000    -0.007620000000000
    -0.046358000000000     0.012181500000000    -0.006673500000000
     0.020432000000000     0.000290000000000    -0.008259500000000
1 61
    -0.007511500000000    -0.008803000000000     0.020252500000000
     0.000147000000000    -0.006211000000000    -0.006855500000000
    -0.003279000000000    -0.002429500000000     0.035109000000000
1 62
     0.000484000000000    -0.001107500000000    -0.001827000000000
    -0.001217000000000     0.004825500000000     0.000152000000000
    -0.000025000000000    -0.003077500000000    -0.005796000000000
1 63
     0.004093000000000     0.005393000000000    -0.008233500000000
    -0.003205500000000    -0.002313000000000     0.001681000000000
    -0.007387500000000    -0.005222500000000    -0.003906500000000
1 64
    -0.006330000000000    -0.004425500000000     0.007678500000000
     0.000264500000000    -0.003612000000000     0.001407000000000
     0.001682500000000    -0.000312500000000    -0.005744000000000
1 65
     0.027568500000000    -0.018465000000000    -0.017831000000000
    -0.027141000000000    -0.006956000000000    -0.008158000000000
     0.080750500000000    -0.036180000000000    -0.108106000000000
1 66
    -0.002224000000000     0.002090500000000     0.004838500000000
     0.003841500000000    -0.010256500000000    -0.007086500000000
    -0.001826500000000    -0.002843500000000    -0.009616500000000
1 67
     0.001382500000000     0.000863000000000    -0.000647500000000
     0.004511500000000     0.008824500000000     0.006322000000000
     0.001989500000000     0.003995500000000    -0.002111500000000
1 68
    -0.001269500000000    -0.003144000000000    -0.002044500000000
    -0.001695500000000     0.008236500000000     0.006267500000000
    -0.001875000000000     0.003199500000000     0.001592500000000
1 69
     0.015950500000000     0.022811000000000     0.057003500000000
     0.003448000000000     0.000747000000000     0.007845500000000
     0.016744500000000     0.011942000000000     0.040017000000000
1 70
    -0.003662000000000     0.002369500000000    -0.008305000000000
    -0.002604500000000    -0.004880500000000     0.004996500000000
     0.002578000000000     0.004619000000000     0.001024000000000
1 71
    -0.001443000000000    -0.002777500000000     0.003490500000000
    -0.002074000000000     0.004414500000000    -0.004603000000000
     0.000044000000000    -0.003335000000000    -0.004760500000000
1 72
     0.001350000000000     0.000376500000000    -0.005917000000000
     0.002366000000000     0.003830000000000    -0.001610500000000
    -0.002718000000000    -0.002763000000000    -0.001779000000000
1 73
    -0.004652000000000    -0.000449000000000     0.004355000000000
     0.000110500000000     0.001993500000000     0.004248000000000
    -0.003791500000000    -0.000591000000000     0.021904500000000
1 74
     0.003429000000000     0.002297500000000     0.001376000000000
     0.000427000000000     0.002037000000000     0.003546500000000
     0.000354500000000    -0.000678500000000     0.014682000000000
1 75
    -0.001052000000000     0.008431000000000    -0.005018000000000
    -0.000067000000000    -0.006729500000000    -0.004108000000000
     0.004526500000000     0.009193000000000     0.011616000000000
1 76
     0.003449500000000    -0.001293000000000     0.000080500000000
    -0.000963000000000    -0.000532500000000    -0.003333000000000
    -0.000276500000000    -0.001691500000000     0.009251500000000
1 77
    -0.000444000000000     0.004421500000000    -0.003559500000000
     0.000240500000000     0.003969500000000    -0.010225500000000
    -0.003584000000000    -0.005816000000000     0.008827000000000
1 78
    -0.003970000000000     0.002620000000000     0.000563500000000
     0.001684000000000     0.000076500000000    -0.006047500000000
    -0.008874000000000    -0.003456000000000     0.003676000000000
1 79
    -0.002095500000000    -0.004787500000000    -0.011659000000000
     0.002668500000000    -0.000847500000000     0.011176000000000
     0.006558500000000     0.004923500000000     0.015322000000000
1 80
     0.007457500000000     0.000043500000000     0.007423000000000
     0.006992500000000     0.000249500000000     0.010949000000000
     0.010232000000000     0.002583000000000     0.010027500000000
1 81
     0.062338000000000     0.046288500000000    -0.066371500000000
     0.007914000000000    -0.021753500000000     0.051222000000000
    -0.114060500000000     0.148880500000000    -0.223384500000000
1 82
     0.017005500000000    -0.006843000000000    -0.003960000000000
     0.015376000000000    -0.020624500000000     0.001417500000000
     0.042342500000000     0.001533000000000    -0.009390000000000
1 83
    -0.002660500000000    -0.006263000000000    -0.000883500000000
     0.000804000000000     0.014696500000000    -0.004092000000000
    -0.004060500000000     0.000032500000000    -0.006948500000000
1 84
     0.001144000000000     0.001367500000000    -0.003335500000000
     0.001415500000000     0.019586500000000     0.000238000000000
     0.000728500000000    -0.003512500000000    -0.006464000000000
1 85
     0.027924000000000    -0.083382000000000    -0.021224500000000
    -0.003710000000000    -0.045825000000000    -0.028840000000000
     0.007770000000000    -0.035232500000000    -0.042169500000000
1 86
     0.008596000000000     0.004990500000000     0.002563000000000
     0.002865000000000    -0.012917000000000    -0.006823500000000
    -0.030622000000000     0.016011500000000    -0.000633000000000
1 87
     0.004682500000000    -0.004634000000000     0.001005500000000
     0.002420500000000     0.007937000000000     0.012604000000000
     0.003288500000000     0.006842500000000    -0.001564000000000
1 88
    -0.004580500000000     0.005561000000000    -0.001489000000000
     0.003451500000000     0.007620500000000     0.004105500000000
     0.001215500000000    -0.000883500000000    -0.001339000000000
1 89
     0.001357500000000     0.000536500000000     0.002457500000000
     0.001385000000000    -0.001952000000000    -0.000579500000000
     0.001621500000000     0.002101000000000     0.017526000000000
1 90
    -0.001565500000000     0.000395000000000     0.001226500000000
     0.000836000000000    -0.002027000000000    -0.000794000000000
     0.003146000000000     0.003424500000000     0.015414000000000
1 91
     0.000941000000000     0.000299000000000     0.001336500000000
    -0.001548500000000     0.002166000000000    -0.000052000000000
     0.001068500000000    -0.000026500000000     0.005354000000000
1 92
    -0.000453000000000    -0.000197500000000    -0.000583000000000
    -0.001010500000000     0.002049000000000     0.000172500000000
     0.002401000000000     0.000678500000000     0.004815500000000
1 93
    -0.002665500000000     0.003167000000000     0.000299000000000
    -0.002313000000000     0.003794000000000     0.000526500000000
    -0.002190000000000    -0.001597000000000     0.002141500000000
1 94
     0.003377500000000    -0.001412500000000    -0.001672500000000
    -0.004775000000000     0.006495000000000     0.005954000000000
     0.000941000000000    -0.006618500000000    -0.010243500000000
1 95
     0.001526500000000    -0.001370500000000    -0.000942500000000
     0.002739500000000    -0.003224500000000    -0.001549000000000
    -0.002047000000000    -0.000229000000000     0.000602500000000
1 96
    -0.000478500000000     0.001217000000000     0.000256500000000
     0.002672500000000    -0.004863500000000    -0.002428500000000
    -0.003728500000000     0.004521500000000     0.003240000000000
1 97
     0.004076500000000    -0.004442500000000    -0.004639000000000
     0.004858500000000     0.007543000000000     0.002447000000000
    -0.002912500000000    -0.020899000000000    -0.001559500000000
1 98
     0.000943500000000     0.004709500000000     0.001955000000000
    -0.001160000000000    -0.005797500000000    -0.001120000000000
     0.005876000000000    -0.002781500000000     0.007067000000000
1 99
     0.003412000000000    -0.010960000000000     0.007031500000000
    -0.004581000000000     0.005417500000000     0.000666500000000
    -0.009647000000000     0.006134000000000     0.002546000000000
1 100
     0.004865000000000     0.017956500000000     0.004156500000000
    -0.001908500000000     0.007653000000000     0.001655500000000
    -0.007724500000000    -0.000485000000000     0.005173500000000
1 101
    -0.030500000000000     0.006054000000000    -0.001831500000000
    -0.040081500000000    -0.003230500000000    -0.007210500000000
    -0.075250000000000     0.007499000000000    -0.015878500000000
1 102
    -0.164586000000000     0.014830500000000     0.383796000000000
    -0.020026500000000    -0.001703000000000     0.005504500000000
     0.413623500000000    -0.063929000000000    -0.911496000000000
1 103
     0.004607500000000    -0.003985500000000    -0.001504000000000
     0.008491000000000     0.010954500000000     0.005850500000000
     0.006115500000000     0.002421500000000    -0.002424000000000
1 104
    -0.001805000000000     0.001782500000000    -0.001906500000000
     0.009883500000000     0.014719000000000     0.004714000000000
     0.007765000000000     0.001058000000000     0.000904500000000
1 105
     0.010250000000000    -0.000686000000000     0.009357000000000
    -0.018939000000000     0.002005000000000    -0.000952000000000
    -0.005599000000000     0.007034500000000    -0.006513500000000
1 106
    -0.062116000000000     0.224273500000000    -0.080355500000000
     0.301734000000000    -0.210119500000000     0.117886000000000
    -0.043723500000000     0.054793000000000     0.054649500000000
1 107
     0.007604500000000    -0.038643500000000     0.011696500000000
     0.035966500000000    -0.036947500000000    -0.015111000000000
    -0.022993000000000     0.049643000000000     0.008616000000000
1 108
    -0.039747500000000     0.001418000000000    -0.003324500000000
    -0.113223000000000    -0.001571000000000    -0.022999000000000
    -0.002117500000000     0.008347500000000    -0.023954000000000
1 109
     0.015409000000000    -0.001762500000000    -0.008171000000000
    -0.003329000000000    -0.005010000000000     0.006947500000000
    -0.011421000000000     0.002997500000000     0.012031000000000
1 110
    -0.106853000000000     0.077130000000000    -0.082857000000000
     0.062395000000000    -0.066514000000000     0.072251000000000
    -0.104222000000000     0.086489000000000    -0.062974500000000
1 111
     0.009485500000000     0.000192000000000    -0.001224500000000
    -0.001086000000000     0.002595000000000    -0.003869500000000
    -0.001163500000000     0.001972000000000     0.000124000000000
1 112
    -0.008521000000000    -0.001113000000000     0.005642500000000
    -0.001088000000000     0.011310000000000     0.004850000000000
     0.001275000000000     0.010983500000000     0.000324000000000
2 1
    -0.027717000000000    -0.001174000000000     0.005476500000000
    -0.001173000000000     0.025784000000000     0.006481500000000
     0.005477500000000     0.006482000000000     0.021041000000000
2 2
     2.047732499999999    -0.335123500000000    -0.282862500000000
    -0.335100500000000     1.420215500000000     0.042261500000000
    -0.282901000000000     0.042277500000000     1.889826000000000
2 3
    -0.013606500000000     0.008537000000000     0.003115000000000
     0.008537500000000    -0.025011000000000    -0.004026500000000
     0.003114500000000    -0.004026500000000     0.004050500000000
2 4
     0.005391500000000    -0.001998500000000    -0.000410500000000
    -0.001999000000000    -0.043507500000000    -0.004622000000000
    -0.000411500000000    -0.004623000000000    -0.000429000000000
2 5
    -0.008372000000000     0.000259000000000    -0.000143500000000
     0.001104000000000     0.001708500000000     0.000028000000000
    -0.002672500000000     0.000675000000000    -0.013656500000000
2 6
     0.011474000000000    -0.002924500000000    -0.006915500000000
    -0.001317500000000     0.004241000000000     0.002869500000000
     0.003393000000000    -0.010013000000000    -0.036229000000000
2 7
    -0.003014000000000     0.000078500000000     0.001496000000000
    -0.000429500000000    -0.002538000000000    -0.000833000000000
     0.000110000000000     0.001002000000000    -0.002396000000000
2 8
     0.003206000000000     0.000505500000000     0.000191000000000
    -0.001041000000000    -0.002287000000000     0.001437000000000
    -0.000914500000000     0.002501000000000    -0.004067500000000
2 9
    -0.001088500000000     0.000221500000000    -0.000066500000000
     0.000230500000000    -0.001120500000000     0.001579500000000
     0.000066000000000    -0.001580500000000    -0.011380000000000
2 10
     0.004166500000000    -0.001612500000000    -0.006649500000000
    -0.001613000000000    -0.001468000000000     0.002962000000000
     0.006649000000000    -0.002962000000000    -0.018327000000000
2 11
    -0.000384000000000     0.000463000000000    -0.000716000000000
     0.000462500000000     0.001090500000000    -0.002714000000000
     0.000716000000000     0.002714000000000    -0.007228500000000
2 12
     0.000404000000000     0.000265500000000     0.000417000000000
     0.000264500000000     0.001319000000000    -0.002515000000000
    -0.000416000000000     0.002515000000000    -0.009554000000000
2 13
    -0.010279500000000     0.005191500000000    -0.010595000000000
     0.010247500000000     0.015043000000000     0.010251000000000
    -0.014138000000000     0.007633500000000     0.011177000000000
2 14
    -0.022784000000000    -0.084469500000000     0.089275000000000
    -0.082229500000000    -0.039239500000000     0.111123500000000
     0.092090500000000     0.116761500000000    -0.071982500000000
2 15
    -0.005524500000000    -0.006013000000000    -0.004730500000000
    -0.004417500000000    -0.019258500000000    -0.010033500000000
    -0.002569500000000    -0.003855000000000     0.003409500000000
2 16
     0.007405000000000     0.019608000000000     0.004199000000000
     0.013223500000000    -0.021515500000000    -0.019197500000000
     0.000212500000000    -0.021359000000000    -0.000245000000000
2 17
    -0.001109000000000    -0.000361000000000     0.001912500000000
    -0.000193000000000     0.002170000000000     0.001176000000000
     0.007771500000000     0.005396000000000    -0.022713500000000
2 18
    -0.004508000000000     0.009024500000000    -0.008705500000000
     0.001348500000000     0.003110500000000    -0.000476000000000
    -0.010748000000000     0.013104000000000    -0.023088000000000
2 19
    -0.000091500000000     0.000700500000000     0.001784500000000
     0.000716500000000    -0.002734000000000    -0.001590000000000
    -0.001252000000000    -0.005260000000000    -0.005958000000000
2 20
    -0.000330500000000    -0.006306000000000    -0.000553500000000
     0.000503000000000    -0.002525000000000     0.000010500000000
    -0.000574000000000    -0.009560000000000    -0.006034500000000
2 21
     0.010280000000000     0.001690000000000    -0.005271500000000
     0.002568500000000    -0.014522500000000     0.021299500000000
    -0.002853500000000     0.017725500000000     0.013835500000000
2 22
    -0.006157500000000    -0.002475000000000     0.000972500000000
    -0.000207500000000    -0.002718000000000     0.007500500000000
     0.003010500000000     0.003053000000000     0.008289500000000
2 23
     0.023766500000000    -0.057766500000000    -0.076796500000000
    -0.068205500000000    -0.055959000000000    -0.150403000000000
    -0.096083000000000    -0.153526500000000    -0.131536000000000
2 24
    -0.040990000000000     0.007395500000000     0.013505500000000
     0.007081500000000    -0.004060500000000    -0.013628000000000
     0.019652000000000    -0.007358500000000    -0.002345500000000
2 25
     0.011738500000000     0.015853500000000     0.016610000000000
     0.014017500000000    -0.034836500000000    -0.064220500000000
     0.019271500000000    -0.067025500000000    -0.024011500000000
2 26
    -0.009055000000000    -0.004801000000000     0.004057000000000
    -0.001990500000000    -0.000744000000000    -0.011072000000000
    -0.005637000000000    -0.015399500000000     0.007294500000000
2 27
     0.011739000000000    -0.014019500000000     0.019273500000000
    -0.015851500000000    -0.034837000000000     0.067026500000000
     0.016607500000000     0.064220500000000    -0.024012000000000
2 28
    -0.009055500000000     0.001991500000000    -0.005636000000000
     0.004801000000000    -0.000744000000000     0.015400000000000
     0.004056500000000     0.011072500000000     0.007293000000000
2 29
    -0.001623500000000     0.001817500000000    -0.009294000000000
     0.005509000000000     0.009833500000000    -0.001688000000000
    -0.015471000000000    -0.007357000000000    -0.021104000000000
2 30
    -0.001623500000000    -0.005507500000000     0.015472500000000
    -0.001816000000000     0.009833500000000    -0.007357500000000
     0.009296500000000    -0.001689000000000    -0.021104500000000
2 31
     0.000405500000000     0.000712500000000    -0.003623500000000
    -0.001972000000000    -0.007528000000000     0.002793500000000
    -0.000715500000000     0.001398000000000    -0.001631000000000
2 32
     0.000405500000000     0.001971500000000     0.000722500000000
    -0.000710500000000    -0.007528500000000     0.001393000000000
     0.003619500000000     0.002798000000000    -0.001631000000000
2 33
     0.026835500000000     0.009584000000000    -0.020632500000000
     0.014676000000000    -0.012970000000000     0.006175500000000
    -0.001104000000000    -0.004771000000000    -0.033636500000000
2 34
    -0.125534500000000     0.034417000000000     0.107731000000000