112  
42   

1    
  0.0100000000000000   0.0000000000000000   0.0000000000000000
  -0.0210187400    0.0027273300    0.0039120700
  -0.0001495000   -0.0006643700    0.0009895500
  -0.0004795000   -0.0006560300    0.0010487500
  -0.0002892100   -0.0007613600    0.0010135600
   0.0018007300   -0.0013698700   -0.0002589200
   0.0019996300   -0.0014014700   -0.0003263600
   0.0018836800   -0.0014038700   -0.0003297200
   0.0019458700   -0.0013996200   -0.0003427500
   0.0003836200    0.0006918400    0.0011114900
   0.0004366500    0.0006735500    0.0010454700
   0.0004213900    0.0006730900    0.0010405400
   0.0004293300    0.0006711100    0.0010518500
  -0.0016896200    0.0022449500   -0.0012223600
  -0.0018130600    0.0013470900   -0.0002223000
  -0.0019898600    0.0012026500   -0.0003699100
  -0.0018605300    0.0014586500   -0.0002807700
   0.0019607600    0.0013084800    0.0004149000
   0.0019268900    0.0014024200    0.0003086600
   0.0019190200    0.0014620700    0.0003333600
   0.0019166900    0.0013917800    0.0003100100
  -0.0018541800   -0.0013741200    0.0003179700
  -0.0020184500   -0.0014158800    0.0003805600
  -0.0015057400   -0.0014722100    0.0001931100
  -0.0021509400   -0.0008201100    0.0010968900
   0.0005160200   -0.0006277500   -0.0010853200
   0.0003085600   -0.0008348400   -0.0012113300
   0.0005159700   -0.0006955800   -0.0009881800
   0.0003085800   -0.0005351000   -0.0012375900
  -0.0004091600    0.0007308000   -0.0011994100
  -0.0004089900    0.0006577900   -0.0009518600
  -0.0004294700    0.0006557900   -0.0010520500
  -0.0004295900    0.0006683400   -0.0010085900
   0.0014098700   -0.0039329300    0.0031403800
  -0.0001320600   -0.0036783000    0.0044346600
   0.0001413000   -0.0036235500    0.0042515600
   0.0000746900   -0.0036435800    0.0040785500
   0.0086443000    0.0069244000   -0.0116417200
   0.0086353400    0.0069571100   -0.0116340700
   0.0086331000    0.0069507900   -0.0116638800
   0.0086853100    0.0070102100   -0.0116889700
  -0.0009858500   -0.0185040000   -0.0194717700
  -0.0001641600   -0.0188569000   -0.0200167300
  -0.0007982500   -0.0200858300   -0.0183934700
  -0.0013111300   -0.0177115600   -0.0201977100
   0.0031388000   -0.0183393500    0.0211334800
   0.0012127800   -0.0186330900    0.0193717600
   0.0009482100   -0.0186420900    0.0194871900
   0.0009477700   -0.0184947500    0.0194891000
  -0.0127952500   -0.0110322700    0.0033923400
  -0.0128038900   -0.0110855700    0.0033947300
  -0.0127948400   -0.0110617700    0.0033860800
  -0.0128080800   -0.0110668200    0.0033897500
   0.0005609200   -0.0085166900   -0.0142085400
  -0.0040431200   -0.0062459400   -0.0102503300
  -0.0085819200   -0.0069284700   -0.0116781900
  -0.0086986400   -0.0064324600   -0.0116339000
   0.0094463300    0.0175850700    0.0017836100
   0.0098197500    0.0173698900    0.0018789900
   0.0095866700    0.0171189100    0.0017958600
   0.0096401100    0.0174373600    0.0018803800
  -0.0008821500    0.0186301300    0.0193001600
  -0.0009617300    0.0185531000    0.0195221000
  -0.0009979500    0.0184879100    0.0195864400
  -0.0008936500    0.0185861900    0.0194275100
  -0.0089111400    0.0071326700    0.0118390200
  -0.0086115200    0.0069269400    0.0116113000
  -0.0086474100    0.0069391500    0.0116657700
  -0.0086208000    0.0069792300    0.0116796500
  -0.0003000900   -0.0038126400   -0.0047985100
  -0.0001037100   -0.0036074400   -0.0041434800
  -0.0001255600   -0.0035561100   -0.0042612600
  -0.0001536200   -0.0035875900   -0.0041671900
  -0.0000935100    0.0035885700    0.0041827900
  -0.0001743700    0.0035610000    0.0042125800
  -0.0001295600    0.0034993600    0.0042767700
  -0.0001745600    0.0035968500    0.0042256200
   0.0096277500   -0.0174994000   -0.0017686900
   0.0096631000   -0.0174813300   -0.0018101300
   0.0096438700   -0.0174073800   -0.0016877400
   0.0095486100   -0.0174556500   -0.0018785600
  -0.0134271000    0.0106087800   -0.0027283700
  -0.0129713100    0.0111359000   -0.0033517600
  -0.0127745300    0.0111316300   -0.0033828100
  -0.0128125800    0.0110551700   -0.0033585800
   0.0083533600   -0.0061107900    0.0118716000
   0.0085479700   -0.0069966000    0.0116342500
   0.0085868600   -0.0069012000    0.0116491300
   0.0086796200   -0.0070031100    0.0116741800
  -0.0096368000   -0.0174605000    0.0017797100
  -0.0096075100   -0.0174591700    0.0017920200
  -0.0096325900   -0.0174581300    0.0017909400
  -0.0096186900   -0.0174531800    0.0018101100
   0.0009836300    0.0185103500   -0.0195071000
   0.0009231000    0.0185562500   -0.0194870900
   0.0009417100    0.0185556400   -0.0194946700
   0.0009618100    0.0185296400   -0.0195066700
   0.0127601300   -0.0110240500   -0.0033446300
   0.0127913500   -0.0111158100   -0.0034108100
   0.0127671000   -0.0109588600   -0.0034617200
   0.0127525500   -0.0112480800   -0.0034330400
  -0.0093193000    0.0173951500   -0.0017863500
  -0.0079698600    0.0173062400   -0.0056226600
  -0.0096693800    0.0174949500   -0.0017894700
  -0.0096050800    0.0174373000   -0.0017855100
   0.0126977100    0.0110751500    0.0032967900
   0.0134132800    0.0088487900    0.0041977800
   0.0127278200    0.0114540600    0.0032734200
   0.0132005000    0.0110549000    0.0034229700
  -0.0000136800    0.0036015700   -0.0041449800
   0.0012123400    0.0028145100   -0.0034045800
   0.0000453100    0.0035817900   -0.0042138700
   0.0002253500    0.0035948000   -0.0042828200

1    
 -0.0100000000000000   0.0000000000000000   0.0000000000000000
   0.0199359100   -0.0039751400   -0.0017451800
  -0.0007038400   -0.0006878500    0.0010990800
  -0.0003716700   -0.0006960000    0.0010405400
  -0.0005613400   -0.0005906200    0.0010758600
   0.0020302100   -0.0014283600   -0.0003972300
   0.0018321900   -0.0013962900   -0.0003292300
   0.0019478000   -0.0013937600   -0.0003259000
   0.0018855900   -0.0013980500   -0.0003128300
   0.0004669500    0.0006595900    0.0009785000
   0.0004148800    0.0006779800    0.0010441400
   0.0004294700    0.0006784000    0.0010488800
   0.0004216500    0.0006803700    0.0010375300
  -0.0021453000    0.0005555600    0.0005631400
  -0.0020186500    0.0014509200   -0.0004342000
  -0.0018417600    0.0015948100   -0.0002859300
  -0.0019710200    0.0013383900   -0.0003753800
   0.0018706000    0.0014889700    0.0002407900
   0.0019047100    0.0013952000    0.0003469100
   0.0019124100    0.0013359500    0.0003222900
   0.0019148600    0.0014057900    0.0003457000
  -0.0019773300   -0.0014236200    0.0003374200
  -0.0018128500   -0.0013820800    0.0002751300
  -0.0023255400   -0.0013243000    0.0004632200
  -0.0016756100   -0.0019754400   -0.0004390400
   0.0003349200   -0.0007237700   -0.0010041800
   0.0005433300   -0.0005177700   -0.0008791300
   0.0003348600   -0.0006557500   -0.0011009000
   0.0005433600   -0.0008154900   -0.0008521200
  -0.0004416300    0.0006206500   -0.0008899600
  -0.0004414600    0.0006941400   -0.0011377400
  -0.0004213600    0.0006952200   -0.0010376000
  -0.0004214800    0.0006825900   -0.0010810600
  -0.0011008200   -0.0032445900    0.0052950000
   0.0004046500   -0.0034866200    0.0040220100
   0.0001392600   -0.0035439700    0.0042010200
   0.0002051000   -0.0035239200    0.0043736200
   0.0086228500    0.0069708800   -0.0116771100
   0.0086319100    0.0069383500   -0.0116849000
   0.0086340800    0.0069446600   -0.0116551100
   0.0085821900    0.0068849900   -0.0116304400
  -0.0009309500   -0.0185798500   -0.0195358900
  -0.0017499600   -0.0182286900   -0.0189981400
  -0.0011120500   -0.0170030500   -0.0206093200
  -0.0006043600   -0.0193720800   -0.0188015300
  -0.0011788000   -0.0187437400    0.0179254600
   0.0007008500   -0.0184502800    0.0196374000
   0.0009656000   -0.0184424200    0.0195218300
   0.0009657700   -0.0185896400    0.0195192400
  -0.0128069900   -0.0111054200    0.0033908500
  -0.0127984300   -0.0110518000    0.0033886300
  -0.0128075000   -0.0110756500    0.0033971400
  -0.0127942800   -0.0110704500    0.0033934700
  -0.0175030800   -0.0054798900   -0.0091985300
  -0.0133771600   -0.0077018600   -0.0131219300
  -0.0086847100   -0.0069659700   -0.0116407400
  -0.0085694200   -0.0074608100   -0.0116829400
   0.0097979600    0.0173114300    0.0018257700
   0.0094285200    0.0175402500    0.0017313000
   0.0096586100    0.0178034000    0.0018143600
   0.0096027100    0.0174710500    0.0017279800
  -0.0010323800    0.0184540700    0.0197052100
  -0.0009520500    0.0185309500    0.0194855600
  -0.0009160900    0.0185957700    0.0194217700
  -0.0010202500    0.0184976800    0.0195810800
  -0.0083597700    0.0067633700    0.0114824000
  -0.0086560000    0.0069687500    0.0117080700
  -0.0086197600    0.0069564100    0.0116528200
  -0.0086461900    0.0069163500    0.0116387600
   0.0000189200   -0.0033564200   -0.0036584400
  -0.0001769500   -0.0035600500   -0.0043095800
  -0.0001544200   -0.0036116600   -0.0041914500
  -0.0001266200   -0.0035800600   -0.0042855300
  -0.0001865500    0.0035795900    0.0042698900
  -0.0001057900    0.0036069500    0.0042401000
  -0.0001506000    0.0036679800    0.0041764100
  -0.0001055700    0.0035709900    0.0042272300
   0.0096188700   -0.0174109700   -0.0018398800
   0.0095837000   -0.0174289300   -0.0017988600
   0.0096019600   -0.0175031300   -0.0019209200
   0.0096977600   -0.0174547800   -0.0017301000
  -0.0121803400    0.0115345500   -0.0040558000
  -0.0126312000    0.0109990400   -0.0034309600
  -0.0128277400    0.0110063700   -0.0034004800
  -0.0127897000    0.0110825200   -0.0034252900
   0.0089118400   -0.0077784300    0.0114471100
   0.0087198900   -0.0068967900    0.0116855100
   0.0086805100   -0.0069938800    0.0116692400
   0.0085880100   -0.0068918900    0.0116444000
  -0.0096096500   -0.0174497700    0.0018288600
  -0.0096388200   -0.0174512700    0.0018165500
  -0.0096137700   -0.0174521500    0.0018176700
  -0.0096277500   -0.0174571300    0.0017984500
   0.0009303200    0.0185736900   -0.0195011200
   0.0009906500    0.0185280000   -0.0195205400
   0.0009722400    0.0185282300   -0.0195135200
   0.0009522400    0.0185539800   -0.0195015400
   0.0128416600   -0.0111129000   -0.0034374100
   0.0128102200   -0.0110216200   -0.0033717100
   0.0128353400   -0.0111780600   -0.0033210900
   0.0128498500   -0.0108889500   -0.0033499100
  -0.0099293000    0.0175162300   -0.0018229800
  -0.0112615800    0.0176028500    0.0020532600
  -0.0095772300    0.0174152400   -0.0018195500
  -0.0096411800    0.0174729500   -0.0018236400
   0.0129027100    0.0110614300    0.0034839300
   0.0121709600    0.0133342600    0.0025906700
   0.0128799100    0.0106811900    0.0035073500
   0.0124055500    0.0110832600    0.0033564800
   0.0002945000    0.0035663200   -0.0043084000
  -0.0009247200    0.0043571100   -0.0050617200
   0.0002350200    0.0035856300   -0.0042383600
   0.0000549300    0.0035725400   -0.0041699700

1    
  0.0000000000000000   0.0100000000000000   0.0000000000000000
   0.0029449500   -0.0149221300    0.0006542800
  -0.0004136400   -0.0009337200    0.0009798700
  -0.0004055200   -0.0002411600    0.0010909600
  -0.0005110300   -0.0004255000    0.0010850000
   0.0019290100   -0.0014414600   -0.0003569000
   0.0019045800   -0.0014159400   -0.0003281600
   0.0019261900   -0.0013760000   -0.0003420800
   0.0019200400   -0.0013734200   -0.0003193400
   0.0004415600    0.0006903100    0.0010150000
   0.0004231900    0.0006868900    0.0010289200
   0.0004227900    0.0006625900    0.0010698800
   0.0004208600    0.0006648600    0.0010718700
  -0.0010910700    0.0017908400   -0.0014427300
  -0.0020183200    0.0012480100   -0.0004308000
  -0.0020477400    0.0016138100   -0.0001360700
  -0.0018717600    0.0015916300   -0.0002278600
   0.0019020500    0.0013680100    0.0003324300
   0.0019177000    0.0013772200    0.0003159700
   0.0019106500    0.0014238300    0.0003278300
   0.0019086100    0.0014260900    0.0003438900
  -0.0019137200   -0.0013716500    0.0002526400
  -0.0019413400   -0.0012533400    0.0001148800
  -0.0019868100   -0.0013579200    0.0004641000
  -0.0012358500   -0.0008381700    0.0018274500
   0.0004451600   -0.0006686200   -0.0009336200
   0.0002846500   -0.0003258900   -0.0004002200
   0.0003774500   -0.0006681500   -0.0011985100
   0.0005831500   -0.0003287800   -0.0017125400
  -0.0004073400    0.0005771800   -0.0009710600
  -0.0004804800    0.0005774700   -0.0010277800
  -0.0004182700    0.0007508700   -0.0010588300
  -0.0004058300    0.0007508800   -0.0010729400
  -0.0006999000   -0.0026624600    0.0052156100
  -0.0000073800   -0.0034543300    0.0041649100
   0.0001550700   -0.0037573000    0.0042613000
   0.0002681900   -0.0036095900    0.0044833500
   0.0086370500    0.0069401300   -0.0116600700
   0.0086177400    0.0069241400   -0.0116561000
   0.0086387800    0.0069699200   -0.0116653200
   0.0086274000    0.0069699800   -0.0116554600
  -0.0006973100   -0.0183763700   -0.0193555000
  -0.0011799600   -0.0181765800   -0.0188277400
  -0.0019517000   -0.0184419100   -0.0198928700
  -0.0011466400   -0.0181461600   -0.0200430600
   0.0009252200   -0.0190010300    0.0197100900
   0.0007604400   -0.0188167900    0.0195360100
   0.0010737000   -0.0183844300    0.0195274300
   0.0011569100   -0.0182905100    0.0194529800
  -0.0128184200   -0.0110288300    0.0033878600
  -0.0128034200   -0.0110376900    0.0033982300
  -0.0127914400   -0.0111096300    0.0033893800
  -0.0127961000   -0.0111109500    0.0033824300
  -0.0105531100   -0.0071143000   -0.0113997800
  -0.0074940400   -0.0070347800   -0.0109993300
  -0.0088151800   -0.0070334300   -0.0116446000
  -0.0087778400   -0.0074649800   -0.0117648100
   0.0108610800    0.0218576700    0.0019776600
   0.0094530000    0.0174453400    0.0016372000
   0.0089717200    0.0209923800    0.0016848000
   0.0100852900    0.0173337800    0.0018715600
  -0.0009585400    0.0186046000    0.0195710400
  -0.0009448500    0.0184935900    0.0195025500
  -0.0009249300    0.0185651000    0.0194871000
  -0.0009594300    0.0185781900    0.0194897700
  -0.0083632800    0.0070190400    0.0117431700
  -0.0086719900    0.0070504000    0.0117302500
  -0.0086784800    0.0068593800    0.0115957400
  -0.0086164500    0.0068653100    0.0115965100
  -0.0001742000   -0.0035905800   -0.0043030100
  -0.0001139100   -0.0035347700   -0.0042764500
  -0.0001193700   -0.0036280600   -0.0041804100
  -0.0001637200   -0.0036221900   -0.0042104000
  -0.0001413100    0.0035640400    0.0041838600
  -0.0001443200    0.0035635800    0.0041910200
  -0.0001392500    0.0036513700    0.0042673200
  -0.0001303800    0.0035892000    0.0042597200
   0.0096208900   -0.0174949500   -0.0017017600
   0.0096065800   -0.0174559200   -0.0017437900
   0.0095965000   -0.0174468700   -0.0019161400
   0.0095534600   -0.0174576400   -0.0019137100
  -0.0128814100    0.0112893800   -0.0039038500
  -0.0129543600    0.0112754900   -0.0034061400
  -0.0128093400    0.0109219300   -0.0033506100
  -0.0128155000    0.0108727800   -0.0033945200
   0.0086715800   -0.0064908800    0.0119479100
   0.0086047300   -0.0068183300    0.0117276100
   0.0086096200   -0.0070272000    0.0115333900
   0.0085993100   -0.0070240400    0.0116182000
  -0.0096369900   -0.0174356700    0.0018102300
  -0.0096315900   -0.0174348800    0.0018122800
  -0.0096077400   -0.0174768300    0.0018048200
  -0.0096131300   -0.0174756700    0.0018025600
   0.0009800600    0.0185040800   -0.0195093500
   0.0010046800    0.0184771100   -0.0195636000
   0.0009296200    0.0185742400   -0.0194888200
   0.0009302400    0.0185904900   -0.0194799400
   0.0127522200   -0.0111441500   -0.0034154900
   0.0128125300   -0.0110106100   -0.0033800500
   0.0128468900   -0.0111228900   -0.0033975600
   0.0128198400   -0.0111455400   -0.0034078300
  -0.0092232400    0.0174872800   -0.0017327100
  -0.0094166700    0.0174720000   -0.0018745500
  -0.0097080400    0.0173452700   -0.0018632800
  -0.0097219500    0.0173078700   -0.0018516500
   0.0129911300    0.0110488000    0.0034006200
   0.0097524200    0.0132005400    0.0022097700
   0.0124422700    0.0114342600    0.0035402900
   0.0139360900    0.0110817300    0.0036215500
   0.0001734800    0.0036342000   -0.0042956300
  -0.0004848400    0.0042475900   -0.0049562000
   0.0001509700    0.0035578200   -0.0041871900
   0.0001510600    0.0034711100   -0.0042743100

1    
  0.0000000000000000  -0.0100000000000000   0.0000000000000000
  -0.0037570600    0.0134821800    0.0014995100
  -0.0004371000   -0.0004180400    0.0011095000
  -0.0004455000   -0.0011113100    0.0009985200
  -0.0003402800   -0.0009257200    0.0010044700
   0.0019026600   -0.0013566400   -0.0002995100
   0.0019266600   -0.0013817700   -0.0003276000
   0.0019053700   -0.0014217400   -0.0003133400
   0.0019114500   -0.0014241800   -0.0003360000
   0.0004093000    0.0006609500    0.0010742400
   0.0004278000    0.0006644800    0.0010605100
   0.0004280800    0.0006889700    0.0010195800
   0.0004301100    0.0006866700    0.0010175900
  -0.0027356600    0.0010060500    0.0007797400
  -0.0018133700    0.0015488700   -0.0002257800
  -0.0017832700    0.0011835000   -0.0005200200
  -0.0019601100    0.0012064600   -0.0004285300
   0.0019290200    0.0014302200    0.0003229100
   0.0019138400    0.0014206200    0.0003394900
   0.0019207100    0.0013733300    0.0003280400
   0.0019229400    0.0013714100    0.0003120900
  -0.0019178700   -0.0014260100    0.0004026500
  -0.0018899700   -0.0015437900    0.0005408700
  -0.0018451800   -0.0014391300    0.0001915400
  -0.0025999600   -0.0019573500   -0.0011806100
   0.0004053500   -0.0006835000   -0.0011550600
   0.0005650000   -0.0010226200   -0.0016846300
   0.0004734700   -0.0006830300   -0.0008905100
   0.0002661200   -0.0010255200   -0.0003720100
  -0.0004436600    0.0007738500   -0.0011182100
  -0.0003703000    0.0007741400   -0.0010615400
  -0.0004324800    0.0006003000   -0.0010309700
  -0.0004452700    0.0006003200   -0.0010170700
   0.0009920900   -0.0045059300    0.0032263200
   0.0002861400   -0.0037137300    0.0042884200
   0.0001257200   -0.0034109000    0.0041906900
   0.0000120900   -0.0035575700    0.0039699400
   0.0086301300    0.0069556000   -0.0116590900
   0.0086496500    0.0069715300   -0.0116630600
   0.0086283900    0.0069253600   -0.0116535700
   0.0086395900    0.0069248700   -0.0116634400
  -0.0012185800   -0.0187083700   -0.0196520700
  -0.0007297200   -0.0189080400   -0.0201803000
   0.0000483100   -0.0186338000   -0.0191132700
  -0.0007719800   -0.0189323400   -0.0189647300
   0.0009867900   -0.0180839900    0.0192959200
   0.0011539800   -0.0182692500    0.0194739300
   0.0008402700   -0.0186992400    0.0194815200
   0.0007571900   -0.0187932200    0.0195559700
  -0.0127838900   -0.0111089100    0.0033952800
  -0.0127988600   -0.0110997700    0.0033851900
  -0.0128109000   -0.0110278500    0.0033939200
  -0.0128062600   -0.0110263200    0.0034009400
  -0.0067182300   -0.0067672500   -0.0119169000
  -0.0097738500   -0.0068537400   -0.0123215000
  -0.0084524800   -0.0068619500   -0.0116743400
  -0.0084909300   -0.0064301700   -0.0115540400
   0.0083881700    0.0132587900    0.0016339100
   0.0097929400    0.0174648000    0.0019707200
   0.0102750500    0.0137153400    0.0019242400
   0.0091581300    0.0175774100    0.0017380900
  -0.0009556000    0.0184803800    0.0194339300
  -0.0009691900    0.0185901000    0.0195055900
  -0.0009890400    0.0185188400    0.0195207200
  -0.0009541400    0.0185059500    0.0195179100
  -0.0089061000    0.0068799200    0.0115800100
  -0.0085951600    0.0068452700    0.0115885200
  -0.0085882500    0.0070358700    0.0117221800
  -0.0086503600    0.0070300400    0.0117218600
  -0.0001052400   -0.0035756400   -0.0041461000
  -0.0001660000   -0.0036323800   -0.0041765200
  -0.0001608500   -0.0035397700   -0.0042724700
  -0.0001164000   -0.0035455900   -0.0042426100
  -0.0001391000    0.0036039100    0.0042688200
  -0.0001357800    0.0036043200    0.0042619500
  -0.0001405900    0.0035167800    0.0041851600
  -0.0001496400    0.0035785500    0.0041930600
   0.0096257000   -0.0174155600   -0.0019062700
   0.0096402600   -0.0174543900   -0.0018647400
   0.0096498700   -0.0174638200   -0.0016926200
   0.0096933100   -0.0174526500   -0.0016947300
  -0.0127231300    0.0108543100   -0.0028794100
  -0.0126468400    0.0108630000   -0.0033777900
  -0.0127932600    0.0112158600   -0.0034324500
  -0.0127871900    0.0112645100   -0.0033897600
   0.0085973800   -0.0074073800    0.0113711100
   0.0086620300   -0.0070766700    0.0115911400
   0.0086580300   -0.0068684600    0.0117854700
   0.0086683400   -0.0068716300    0.0117003100
  -0.0096092900   -0.0174747100    0.0017986400
  -0.0096148700   -0.0174754200    0.0017964000
  -0.0096387100   -0.0174335100    0.0018037800
  -0.0096333400   -0.0174346900    0.0018060100
   0.0009338000    0.0185799600   -0.0194988200
   0.0009091800    0.0186070100   -0.0194445200
   0.0009844100    0.0185097500   -0.0195198000
   0.0009836900    0.0184932200   -0.0195285100
   0.0128493900   -0.0109932900   -0.0033665500
   0.0127893300   -0.0111265600   -0.0034024500
   0.0127552700   -0.0110145400   -0.0033842300
   0.0127816700   -0.0109924800   -0.0033747200
  -0.0100248700    0.0174226700   -0.0018769200
  -0.0098172000    0.0174379400   -0.0017644600
  -0.0095382200    0.0175643600   -0.0017462700
  -0.0095242800    0.0176022500   -0.0017573700
   0.0126123500    0.0110889000    0.0033815800
   0.0157871000    0.0089981500    0.0045674900
   0.0131616000    0.0106953100    0.0032380700
   0.0116716300    0.0110503100    0.0031615700
   0.0001069000    0.0035340000   -0.0041566800
   0.0007630600    0.0029173100   -0.0035111800
   0.0001292500    0.0036097200   -0.0042645800
   0.0001293000    0.0036973100   -0.0041773100

1    
  0.0000000000000000   0.0000000000000000   0.0100000000000000
   0.0024238700   -0.0010830900   -0.0179993200
  -0.0004800900   -0.0007407300    0.0008339200
  -0.0004214800   -0.0006293400    0.0010491300
  -0.0004564900   -0.0006353600    0.0010041800
   0.0018811400   -0.0012991800    0.0000347800
   0.0019426400   -0.0014055900   -0.0001911900
   0.0019248800   -0.0014238300   -0.0002871700
   0.0019146900   -0.0014088700   -0.0003040000
   0.0003588700    0.0007053200    0.0012279900
   0.0004248300    0.0006915300    0.0011584500
   0.0004296000    0.0006505100    0.0011402500
   0.0004183500    0.0006485800    0.0011169400
  -0.0028333900    0.0002351500    0.0003911500
  -0.0017747200    0.0013225700   -0.0004393500
  -0.0019176600    0.0016124600   -0.0003252500
  -0.0018902000    0.0014373100   -0.0003617400
   0.0020231300    0.0012677200    0.0005588600
   0.0018386600    0.0013451200    0.0005548500
   0.0019214900    0.0014946000    0.0003882100
   0.0019282200    0.0014514900    0.0003873800
  -0.0019457300   -0.0014292000    0.0002449900
  -0.0018874000   -0.0015755100    0.0001896300
  -0.0021121800   -0.0013253400    0.0003510900
  -0.0009593700    0.0001289000    0.0016393100
   0.0004819600   -0.0005214300   -0.0011179300
   0.0002316500   -0.0000031500   -0.0008036600
   0.0003849400   -0.0007866400   -0.0011179100
   0.0002586600   -0.0013197900   -0.0008037200
  -0.0005182000    0.0006922000   -0.0008336200
  -0.0002711500    0.0007491900   -0.0008342000
  -0.0004616300    0.0006478300   -0.0010284300
  -0.0004183300    0.0006617500   -0.0010284200
  -0.0008065400   -0.0028234700    0.0070579000
   0.0001503500   -0.0035363900    0.0045622600
   0.0001870300   -0.0035477300    0.0043794500
   0.0001329300   -0.0035767900    0.0043052300
   0.0086124800    0.0068964800   -0.0115656700
   0.0086139500    0.0069360000   -0.0115494300
   0.0086081500    0.0069714800   -0.0116427500
   0.0086329900    0.0070156000   -0.0117191000
  -0.0009650500   -0.0184042200   -0.0195076100
  -0.0010593000   -0.0184231800   -0.0191633900
  -0.0005404000   -0.0182116500   -0.0196478400
  -0.0009828200   -0.0182478000   -0.0196949100
   0.0026701900   -0.0177982500    0.0200697400
   0.0005099300   -0.0182779000    0.0190979200
   0.0010195300   -0.0185429800    0.0194325100
   0.0010406600   -0.0185564300    0.0194325800
  -0.0127845700   -0.0110422500    0.0033675700
  -0.0127851700   -0.0110700500    0.0033436300
  -0.0127930100   -0.0110717200    0.0033588000
  -0.0128068900   -0.0110465400    0.0033612700
  -0.0107357400   -0.0068523600   -0.0121560800
  -0.0081539200   -0.0069552200   -0.0118630700
  -0.0086694700   -0.0069695800   -0.0116807500
  -0.0085672900   -0.0070728300   -0.0116915100
   0.0096929400    0.0174406900    0.0021828100
   0.0095694700    0.0173770200    0.0019622900
   0.0097332200    0.0172499300    0.0019705800
   0.0094190700    0.0174520100    0.0018873500
  -0.0009251200    0.0185663800    0.0191498900
  -0.0009566900    0.0185725500    0.0195618900
  -0.0008832800    0.0185939900    0.0195428300
  -0.0009737500    0.0185451400    0.0195613500
  -0.0094425200    0.0073124800    0.0127383200
  -0.0086153500    0.0069762800    0.0117553700
  -0.0086533100    0.0069077100    0.0116801300
  -0.0086147400    0.0069157300    0.0116433900
  -0.0003076300   -0.0037025200   -0.0046264600
  -0.0001662600   -0.0036293200   -0.0042364800
  -0.0001404300   -0.0035504300   -0.0041786600
  -0.0001128000   -0.0035562800   -0.0042084200
  -0.0001020500    0.0035899100    0.0040070900
  -0.0001437000    0.0035907700    0.0040795400
  -0.0001863300    0.0034917100    0.0041117400
  -0.0001374200    0.0036009400    0.0041338800
   0.0096591400   -0.0173971000   -0.0018924600
   0.0097122200   -0.0174208300   -0.0018412400
   0.0095577000   -0.0175046900   -0.0019579100
   0.0095212700   -0.0174808500   -0.0019044200
  -0.0116471100    0.0095698100   -0.0011088100
  -0.0132258100    0.0110526600   -0.0032973400
  -0.0127603900    0.0110685200   -0.0033219900
  -0.0128084400    0.0111039900   -0.0033268900
   0.0085565300   -0.0065968900    0.0120817200
   0.0089410100   -0.0071074200    0.0116667100
   0.0086005900   -0.0070162500    0.0116749100
   0.0086215600   -0.0069389000    0.0116726700
  -0.0096395100   -0.0174761700    0.0016290300
  -0.0096546100   -0.0174893500    0.0016502700
  -0.0096338700   -0.0174549300    0.0017507100
  -0.0096471700   -0.0174619700    0.0017561200
   0.0009789600    0.0185578500   -0.0195256000
   0.0009474700    0.0186081500   -0.0194017500
   0.0009774100    0.0185443900   -0.0195103400
   0.0009942500    0.0184967000   -0.0195366300
   0.0128299500   -0.0108602500   -0.0033749800
   0.0127423200   -0.0110409400   -0.0034617500
   0.0128977500   -0.0111298100   -0.0034162400
   0.0128780000   -0.0110639200   -0.0034430600
  -0.0088694600    0.0173798900   -0.0016453200
  -0.0138254100    0.0180940300    0.0074747500
  -0.0096845500    0.0174308300   -0.0017802800
  -0.0097010400    0.0174444000   -0.0018135400
   0.0128566600    0.0109979800    0.0034565200
   0.0132432300    0.0105156600    0.0028509800
   0.0130310900    0.0105722300    0.0033055500
   0.0128245300    0.0109848700    0.0036313600
   0.0002542000    0.0035541200   -0.0043464900
   0.0011714900    0.0027333300   -0.0036376500
   0.0001517200    0.0035640900   -0.0042275000
   0.0001273700    0.0034746800   -0.0042295000

1    
  0.0000000000000000   0.0000000000000000  -0.0100000000000000
  -0.0032341500   -0.0002375400    0.0197972000
  -0.0003705400   -0.0006110900    0.0012547400
  -0.0004297100   -0.0007218000    0.0010405500
  -0.0003942000   -0.0007158900    0.0010851900
   0.0019490000   -0.0014994400   -0.0006898000
   0.0018891900   -0.0013920900   -0.0004643200
   0.0019065900   -0.0013738100   -0.0003685200
   0.0019168900   -0.0013888300   -0.0003519200
   0.0004918500    0.0006460800    0.0008614500
   0.0004261500    0.0006599200    0.0009308500
   0.0004212800    0.0007008100    0.0009491700
   0.0004326700    0.0007028600    0.0009723700
  -0.0009915800    0.0025703800   -0.0010485000
  -0.0020574800    0.0014752400   -0.0002158100
  -0.0019134100    0.0011852800   -0.0003301500
  -0.0019415900    0.0013602100   -0.0002935500
   0.0018081700    0.0015298000    0.0000971000
   0.0019940900    0.0014530400    0.0001005800
   0.0019100100    0.0013034000    0.0002675200
   0.0019031800    0.0013462900    0.0002682200
  -0.0018855200   -0.0013681400    0.0004107800
  -0.0019444700   -0.0012210000    0.0004663400
  -0.0017191400   -0.0014725100    0.0003041800
  -0.0028810300   -0.0029416300   -0.0009914100
   0.0003692200   -0.0008294200   -0.0009720400
   0.0006170800   -0.0013436600   -0.0012838900
   0.0004660700   -0.0005651900   -0.0009720500
   0.0005908100   -0.0000353800   -0.0012839600
  -0.0003322700    0.0006584200   -0.0012557100
  -0.0005805700    0.0006020500   -0.0012562800
  -0.0003892400    0.0007037900   -0.0010610500
  -0.0004326400    0.0006897100   -0.0010610400
   0.0011634500   -0.0043844700    0.0013135500
   0.0001282700   -0.0036318100    0.0038895300
   0.0000930000   -0.0036208900    0.0040723800
   0.0001470100   -0.0035912600    0.0041460200
   0.0086546500    0.0069987800   -0.0117532800
   0.0086533500    0.0069592200   -0.0117693600
   0.0086589700    0.0069240000   -0.0116763000
   0.0086355700    0.0068784800   -0.0116002800
  -0.0009494700   -0.0186790000   -0.0195017300
  -0.0008539200   -0.0186603600   -0.0198492400
  -0.0013755700   -0.0188690400   -0.0193665000
  -0.0009314300   -0.0188326100   -0.0193158800
  -0.0007223500   -0.0192735700    0.0189669500
   0.0014063000   -0.0188070400    0.0199064200
   0.0008947600   -0.0185409200    0.0195760400
   0.0008733600   -0.0185274900    0.0195758300
  -0.0128178600   -0.0110949600    0.0034155900
  -0.0128172200   -0.0110667600    0.0034398200
  -0.0128093200   -0.0110658900    0.0034244500
  -0.0127955800   -0.0110908100    0.0034219100
  -0.0065606400   -0.0070411500   -0.0111508700
  -0.0091065200   -0.0069394800   -0.0114496500
  -0.0085969500   -0.0069257500   -0.0116368000
  -0.0086999000   -0.0068209100   -0.0116258200