phonopy:
  version: "2.21.2"
  frequency_unit_conversion_factor: 15.633302
  symmetry_tolerance: 1.00000e-05
  configuration:
    force_constants: "WRITE"
    dim: "2 0 0 0 2 0 0 0 1"
    full_force_constants: ".TRUE."

physical_unit:
  atomic_mass: "AMU"
  length: "angstrom"
  force_constants: "eV/angstrom^2"

space_group:
  type: "P2_12_12_1"
  number: 19
  Hall_symbol: "P 2ac 2ab"

supercell_matrix:
- [   2,   0,   0 ]
- [   0,   2,   0 ]
- [   0,   0,   1 ]

primitive_cell:
  lattice:
  - [     6.658675440000000,     0.000000000000000,     0.000000000000000 ] # a
  - [     0.000000000000000,     7.184565550000000,     0.000000000000000 ] # b
  - [     0.000000000000000,     0.000000000000000,    18.039596260000000 ] # c
  points:
  - symbol: Rb # 1
    coordinates: [  0.086702480000000,  0.240409030000000,  0.161248610000000 ]
    mass: 85.467800
  - symbol: Rb # 2
    coordinates: [  0.111929160000000,  0.415411040000000,  0.507965240000000 ]
    mass: 85.467800
  - symbol: Rb # 3
    coordinates: [  0.413297520000000,  0.759590970000000,  0.661248610000000 ]
    mass: 85.467800
  - symbol: Rb # 4
    coordinates: [  0.388070840000000,  0.584588960000000,  0.007965240000000 ]
    mass: 85.467800
  - symbol: Rb # 5
    coordinates: [  0.611929160000000,  0.084588960000000,  0.492034760000000 ]
    mass: 85.467800
  - symbol: Rb # 6
    coordinates: [  0.888070840000000,  0.915411040000000,  0.992034760000000 ]
    mass: 85.467800
  - symbol: Rb # 7
    coordinates: [  0.913297520000000,  0.740409030000000,  0.338751390000000 ]
    mass: 85.467800
  - symbol: Rb # 8
    coordinates: [  0.586702480000000,  0.259590970000000,  0.838751390000000 ]
    mass: 85.467800
  - symbol: Se # 9
    coordinates: [  0.396549990000000,  0.075571660000000,  0.014938830000000 ]
    mass: 78.960000
  - symbol: Se # 10
    coordinates: [  0.927969960000000,  0.874124790000000,  0.626109820000000 ]
    mass: 78.960000
  - symbol: Se # 11
    coordinates: [  0.524638230000000,  0.855319770000000,  0.201699880000000 ]
    mass: 78.960000
  - symbol: Se # 12
    coordinates: [  0.475361770000000,  0.355319770000000,  0.298300120000000 ]
    mass: 78.960000
  - symbol: Se # 13
    coordinates: [  0.745556290000000,  0.370545590000000,  0.650569220000000 ]
    mass: 78.960000
  - symbol: Se # 14
    coordinates: [  0.572030040000000,  0.125875210000000,  0.126109820000000 ]
    mass: 78.960000
  - symbol: Se # 15
    coordinates: [  0.092199120000000,  0.739733600000000,  0.164249760000000 ]
    mass: 78.960000
  - symbol: Se # 16
    coordinates: [  0.024638230000000,  0.644680230000000,  0.798300120000000 ]
    mass: 78.960000
  - symbol: Se # 17
    coordinates: [  0.072030040000000,  0.374124790000000,  0.873890180000000 ]
    mass: 78.960000
  - symbol: Se # 18
    coordinates: [  0.603450010000000,  0.575571660000000,  0.485061170000000 ]
    mass: 78.960000
  - symbol: Se # 19
    coordinates: [  0.103450010000000,  0.924428340000000,  0.514938830000000 ]
    mass: 78.960000
  - symbol: Se # 20
    coordinates: [  0.592199120000000,  0.760266400000000,  0.835750240000000 ]
    mass: 78.960000
  - symbol: Se # 21
    coordinates: [  0.245556290000000,  0.129454410000000,  0.349430780000000 ]
    mass: 78.960000
  - symbol: Se # 22
    coordinates: [  0.427969960000000,  0.625875210000000,  0.373890180000000 ]
    mass: 78.960000
  - symbol: Se # 23
    coordinates: [  0.407800880000000,  0.260266400000000,  0.664249760000000 ]
    mass: 78.960000
  - symbol: Se # 24
    coordinates: [  0.975361770000000,  0.144680230000000,  0.701699880000000 ]
    mass: 78.960000
  - symbol: Se # 25
    coordinates: [  0.254443710000000,  0.870545590000000,  0.849430780000000 ]
    mass: 78.960000
  - symbol: Se # 26
    coordinates: [  0.907800880000000,  0.239733600000000,  0.335750240000000 ]
    mass: 78.960000
  - symbol: Se # 27
    coordinates: [  0.754443710000000,  0.629454410000000,  0.150569220000000 ]
    mass: 78.960000
  - symbol: Se # 28
    coordinates: [  0.896549990000000,  0.424428340000000,  0.985061170000000 ]
    mass: 78.960000
  reciprocal_lattice: # without 2pi
  - [     0.150180018385158,     0.000000000000000,     0.000000000000000 ] # a*
  - [     0.000000000000000,     0.139187260947184,     0.000000000000000 ] # b*
  - [     0.000000000000000,     0.000000000000000,     0.055433613124554 ] # c*

unit_cell:
  lattice:
  - [     6.658675440000000,     0.000000000000000,     0.000000000000000 ] # a
  - [     0.000000000000000,     7.184565550000000,     0.000000000000000 ] # b
  - [     0.000000000000000,     0.000000000000000,    18.039596260000000 ] # c
  points:
  - symbol: Rb # 1
    coordinates: [  0.086702480000000,  0.240409030000000,  0.161248610000000 ]
    mass: 85.467800
    reduced_to: 1
  - symbol: Rb # 2
    coordinates: [  0.111929160000000,  0.415411040000000,  0.507965240000000 ]
    mass: 85.467800
    reduced_to: 2
  - symbol: Rb # 3
    coordinates: [  0.413297520000000,  0.759590970000000,  0.661248610000000 ]
    mass: 85.467800
    reduced_to: 3
  - symbol: Rb # 4
    coordinates: [  0.388070840000000,  0.584588960000000,  0.007965240000000 ]
    mass: 85.467800
    reduced_to: 4
  - symbol: Rb # 5
    coordinates: [  0.611929160000000,  0.084588960000000,  0.492034760000000 ]
    mass: 85.467800
    reduced_to: 5
  - symbol: Rb # 6
    coordinates: [  0.888070840000000,  0.915411040000000,  0.992034760000000 ]
    mass: 85.467800
    reduced_to: 6
  - symbol: Rb # 7
    coordinates: [  0.913297520000000,  0.740409030000000,  0.338751390000000 ]
    mass: 85.467800
    reduced_to: 7
  - symbol: Rb # 8
    coordinates: [  0.586702480000000,  0.259590970000000,  0.838751390000000 ]
    mass: 85.467800
    reduced_to: 8
  - symbol: Se # 9
    coordinates: [  0.396549990000000,  0.075571660000000,  0.014938830000000 ]
    mass: 78.960000
    reduced_to: 9
  - symbol: Se # 10
    coordinates: [  0.927969960000000,  0.874124790000000,  0.626109820000000 ]
    mass: 78.960000
    reduced_to: 10
  - symbol: Se # 11
    coordinates: [  0.524638230000000,  0.855319770000000,  0.201699880000000 ]
    mass: 78.960000
    reduced_to: 11
  - symbol: Se # 12
    coordinates: [  0.475361770000000,  0.355319770000000,  0.298300120000000 ]
    mass: 78.960000
    reduced_to: 12
  - symbol: Se # 13
    coordinates: [  0.745556290000000,  0.370545590000000,  0.650569220000000 ]
    mass: 78.960000
    reduced_to: 13
  - symbol: Se # 14
    coordinates: [  0.572030040000000,  0.125875210000000,  0.126109820000000 ]
    mass: 78.960000
    reduced_to: 14
  - symbol: Se # 15
    coordinates: [  0.092199120000000,  0.739733600000000,  0.164249760000000 ]
    mass: 78.960000
    reduced_to: 15
  - symbol: Se # 16
    coordinates: [  0.024638230000000,  0.644680230000000,  0.798300120000000 ]
    mass: 78.960000
    reduced_to: 16
  - symbol: Se # 17
    coordinates: [  0.072030040000000,  0.374124790000000,  0.873890180000000 ]
    mass: 78.960000
    reduced_to: 17
  - symbol: Se # 18
    coordinates: [  0.603450010000000,  0.575571660000000,  0.485061170000000 ]
    mass: 78.960000
    reduced_to: 18
  - symbol: Se # 19
    coordinates: [  0.103450010000000,  0.924428340000000,  0.514938830000000 ]
    mass: 78.960000
    reduced_to: 19
  - symbol: Se # 20
    coordinates: [  0.592199120000000,  0.760266400000000,  0.835750240000000 ]
    mass: 78.960000
    reduced_to: 20
  - symbol: Se # 21
    coordinates: [  0.245556290000000,  0.129454410000000,  0.349430780000000 ]
    mass: 78.960000
    reduced_to: 21
  - symbol: Se # 22
    coordinates: [  0.427969960000000,  0.625875210000000,  0.373890180000000 ]
    mass: 78.960000
    reduced_to: 22
  - symbol: Se # 23
    coordinates: [  0.407800880000000,  0.260266400000000,  0.664249760000000 ]
    mass: 78.960000
    reduced_to: 23
  - symbol: Se # 24
    coordinates: [  0.975361770000000,  0.144680230000000,  0.701699880000000 ]
    mass: 78.960000
    reduced_to: 24
  - symbol: Se # 25
    coordinates: [  0.254443710000000,  0.870545590000000,  0.849430780000000 ]
    mass: 78.960000
    reduced_to: 25
  - symbol: Se # 26
    coordinates: [  0.907800880000000,  0.239733600000000,  0.335750240000000 ]
    mass: 78.960000
    reduced_to: 26
  - symbol: Se # 27
    coordinates: [  0.754443710000000,  0.629454410000000,  0.150569220000000 ]
    mass: 78.960000
    reduced_to: 27
  - symbol: Se # 28
    coordinates: [  0.896549990000000,  0.424428340000000,  0.985061170000000 ]
    mass: 78.960000
    reduced_to: 28

supercell:
  lattice:
  - [    13.317350879999999,     0.000000000000000,     0.000000000000000 ] # a
  - [     0.000000000000000,    14.369131100000001,     0.000000000000000 ] # b
  - [     0.000000000000000,     0.000000000000000,    18.039596260000000 ] # c
  points:
  - symbol: Rb # 1
    coordinates: [  0.043351240000000,  0.120204515000000,  0.161248610000000 ]
    mass: 85.467800
    reduced_to: 1
  - symbol: Rb # 2
    coordinates: [  0.543351240000000,  0.120204515000000,  0.161248610000000 ]
    mass: 85.467800
    reduced_to: 1
  - symbol: Rb # 3
    coordinates: [  0.043351240000000,  0.620204515000000,  0.161248610000000 ]
    mass: 85.467800
    reduced_to: 1
  - symbol: Rb # 4
    coordinates: [  0.543351240000000,  0.620204515000000,  0.161248610000000 ]
    mass: 85.467800
    reduced_to: 1
  - symbol: Rb # 5
    coordinates: [  0.055964580000000,  0.207705520000000,  0.507965240000000 ]
    mass: 85.467800
    reduced_to: 5
  - symbol: Rb # 6
    coordinates: [  0.555964580000000,  0.207705520000000,  0.507965240000000 ]
    mass: 85.467800
    reduced_to: 5
  - symbol: Rb # 7
    coordinates: [  0.055964580000000,  0.707705520000000,  0.507965240000000 ]
    mass: 85.467800
    reduced_to: 5
  - symbol: Rb # 8
    coordinates: [  0.555964580000000,  0.707705520000000,  0.507965240000000 ]
    mass: 85.467800
    reduced_to: 5
  - symbol: Rb # 9
    coordinates: [  0.206648760000000,  0.379795485000000,  0.661248610000000 ]
    mass: 85.467800
    reduced_to: 9
  - symbol: Rb # 10
    coordinates: [  0.706648760000000,  0.379795485000000,  0.661248610000000 ]
    mass: 85.467800
    reduced_to: 9
  - symbol: Rb # 11
    coordinates: [  0.206648760000000,  0.879795485000000,  0.661248610000000 ]
    mass: 85.467800
    reduced_to: 9
  - symbol: Rb # 12
    coordinates: [  0.706648760000000,  0.879795485000000,  0.661248610000000 ]
    mass: 85.467800
    reduced_to: 9
  - symbol: Rb # 13
    coordinates: [  0.194035420000000,  0.292294480000000,  0.007965240000000 ]
    mass: 85.467800
    reduced_to: 13
  - symbol: Rb # 14
    coordinates: [  0.694035420000000,  0.292294480000000,  0.007965240000000 ]
    mass: 85.467800
    reduced_to: 13
  - symbol: Rb # 15
    coordinates: [  0.194035420000000,  0.792294480000000,  0.007965240000000 ]
    mass: 85.467800
    reduced_to: 13
  - symbol: Rb # 16
    coordinates: [  0.694035420000000,  0.792294480000000,  0.007965240000000 ]
    mass: 85.467800
    reduced_to: 13
  - symbol: Rb # 17
    coordinates: [  0.305964580000000,  0.042294480000000,  0.492034760000000 ]
    mass: 85.467800
    reduced_to: 17
  - symbol: Rb # 18
    coordinates: [  0.805964580000000,  0.042294480000000,  0.492034760000000 ]
    mass: 85.467800
    reduced_to: 17
  - symbol: Rb # 19
    coordinates: [  0.305964580000000,  0.542294480000000,  0.492034760000000 ]
    mass: 85.467800
    reduced_to: 17
  - symbol: Rb # 20
    coordinates: [  0.805964580000000,  0.542294480000000,  0.492034760000000 ]
    mass: 85.467800
    reduced_to: 17
  - symbol: Rb # 21
    coordinates: [  0.444035420000000,  0.457705520000000,  0.992034760000000 ]
    mass: 85.467800
    reduced_to: 21
  - symbol: Rb # 22
    coordinates: [  0.944035420000000,  0.457705520000000,  0.992034760000000 ]
    mass: 85.467800
    reduced_to: 21
  - symbol: Rb # 23
    coordinates: [  0.444035420000000,  0.957705520000000,  0.992034760000000 ]
    mass: 85.467800
    reduced_to: 21
  - symbol: Rb # 24
    coordinates: [  0.944035420000000,  0.957705520000000,  0.992034760000000 ]
    mass: 85.467800
    reduced_to: 21
  - symbol: Rb # 25
    coordinates: [  0.456648760000000,  0.370204515000000,  0.338751390000000 ]
    mass: 85.467800
    reduced_to: 25
  - symbol: Rb # 26
    coordinates: [  0.956648760000000,  0.370204515000000,  0.338751390000000 ]
    mass: 85.467800
    reduced_to: 25
  - symbol: Rb # 27
    coordinates: [  0.456648760000000,  0.870204515000000,  0.338751390000000 ]
    mass: 85.467800
    reduced_to: 25
  - symbol: Rb # 28
    coordinates: [  0.956648760000000,  0.870204515000000,  0.338751390000000 ]
    mass: 85.467800
    reduced_to: 25
  - symbol: Rb # 29
    coordinates: [  0.293351240000000,  0.129795485000000,  0.838751390000000 ]
    mass: 85.467800
    reduced_to: 29
  - symbol: Rb # 30
    coordinates: [  0.793351240000000,  0.129795485000000,  0.838751390000000 ]
    mass: 85.467800
    reduced_to: 29
  - symbol: Rb # 31
    coordinates: [  0.293351240000000,  0.629795485000000,  0.838751390000000 ]
    mass: 85.467800
    reduced_to: 29
  - symbol: Rb # 32
    coordinates: [  0.793351240000000,  0.629795485000000,  0.838751390000000 ]
    mass: 85.467800
    reduced_to: 29
  - symbol: Se # 33
    coordinates: [  0.198274995000000,  0.037785830000000,  0.014938830000000 ]
    mass: 78.960000
    reduced_to: 33
  - symbol: Se # 34
    coordinates: [  0.698274995000000,  0.037785830000000,  0.014938830000000 ]
    mass: 78.960000
    reduced_to: 33
  - symbol: Se # 35
    coordinates: [  0.198274995000000,  0.537785830000000,  0.014938830000000 ]
    mass: 78.960000
    reduced_to: 33
  - symbol: Se # 36
    coordinates: [  0.698274995000000,  0.537785830000000,  0.014938830000000 ]
    mass: 78.960000
    reduced_to: 33
  - symbol: Se # 37
    coordinates: [  0.463984980000000,  0.437062395000000,  0.626109820000000 ]
    mass: 78.960000
    reduced_to: 37
  - symbol: Se # 38
    coordinates: [  0.963984980000000,  0.437062395000000,  0.626109820000000 ]
    mass: 78.960000
    reduced_to: 37
  - symbol: Se # 39
    coordinates: [  0.463984980000000,  0.937062395000000,  0.626109820000000 ]
    mass: 78.960000
    reduced_to: 37
  - symbol: Se # 40
    coordinates: [  0.963984980000000,  0.937062395000000,  0.626109820000000 ]
    mass: 78.960000
    reduced_to: 37
  - symbol: Se # 41
    coordinates: [  0.262319115000000,  0.427659885000000,  0.201699880000000 ]
    mass: 78.960000
    reduced_to: 41
  - symbol: Se # 42
    coordinates: [  0.762319115000000,  0.427659885000000,  0.201699880000000 ]
    mass: 78.960000
    reduced_to: 41
  - symbol: Se # 43
    coordinates: [  0.262319115000000,  0.927659885000000,  0.201699880000000 ]
    mass: 78.960000
    reduced_to: 41
  - symbol: Se # 44
    coordinates: [  0.762319115000000,  0.927659885000000,  0.201699880000000 ]
    mass: 78.960000
    reduced_to: 41
  - symbol: Se # 45
    coordinates: [  0.237680885000000,  0.177659885000000,  0.298300120000000 ]
    mass: 78.960000
    reduced_to: 45
  - symbol: Se # 46
    coordinates: [  0.737680885000000,  0.177659885000000,  0.298300120000000 ]
    mass: 78.960000
    reduced_to: 45
  - symbol: Se # 47
    coordinates: [  0.237680885000000,  0.677659885000000,  0.298300120000000 ]
    mass: 78.960000
    reduced_to: 45
  - symbol: Se # 48
    coordinates: [  0.737680885000000,  0.677659885000000,  0.298300120000000 ]
    mass: 78.960000
    reduced_to: 45
  - symbol: Se # 49
    coordinates: [  0.372778145000000,  0.185272795000000,  0.650569220000000 ]
    mass: 78.960000
    reduced_to: 49
  - symbol: Se # 50
    coordinates: [  0.872778145000000,  0.185272795000000,  0.650569220000000 ]
    mass: 78.960000
    reduced_to: 49
  - symbol: Se # 51
    coordinates: [  0.372778145000000,  0.685272795000000,  0.650569220000000 ]
    mass: 78.960000
    reduced_to: 49
  - symbol: Se # 52
    coordinates: [  0.872778145000000,  0.685272795000000,  0.650569220000000 ]
    mass: 78.960000
    reduced_to: 49
  - symbol: Se # 53
    coordinates: [  0.286015020000000,  0.062937605000000,  0.126109820000000 ]
    mass: 78.960000
    reduced_to: 53
  - symbol: Se # 54
    coordinates: [  0.786015020000000,  0.062937605000000,  0.126109820000000 ]
    mass: 78.960000
    reduced_to: 53
  - symbol: Se # 55
    coordinates: [  0.286015020000000,  0.562937605000000,  0.126109820000000 ]
    mass: 78.960000
    reduced_to: 53
  - symbol: Se # 56
    coordinates: [  0.786015020000000,  0.562937605000000,  0.126109820000000 ]
    mass: 78.960000
    reduced_to: 53
  - symbol: Se # 57
    coordinates: [  0.046099560000000,  0.369866800000000,  0.164249760000000 ]
    mass: 78.960000
    reduced_to: 57
  - symbol: Se # 58
    coordinates: [  0.546099560000000,  0.369866800000000,  0.164249760000000 ]
    mass: 78.960000
    reduced_to: 57
  - symbol: Se # 59
    coordinates: [  0.046099560000000,  0.869866800000000,  0.164249760000000 ]
    mass: 78.960000
    reduced_to: 57
  - symbol: Se # 60
    coordinates: [  0.546099560000000,  0.869866800000000,  0.164249760000000 ]
    mass: 78.960000
    reduced_to: 57
  - symbol: Se # 61
    coordinates: [  0.012319115000000,  0.322340115000000,  0.798300120000000 ]
    mass: 78.960000
    reduced_to: 61
  - symbol: Se # 62
    coordinates: [  0.512319115000000,  0.322340115000000,  0.798300120000000 ]
    mass: 78.960000
    reduced_to: 61
  - symbol: Se # 63
    coordinates: [  0.012319115000000,  0.822340115000000,  0.798300120000000 ]
    mass: 78.960000
    reduced_to: 61
  - symbol: Se # 64
    coordinates: [  0.512319115000000,  0.822340115000000,  0.798300120000000 ]
    mass: 78.960000
    reduced_to: 61
  - symbol: Se # 65
    coordinates: [  0.036015020000000,  0.187062395000000,  0.873890180000000 ]
    mass: 78.960000
    reduced_to: 65
  - symbol: Se # 66
    coordinates: [  0.536015020000000,  0.187062395000000,  0.873890180000000 ]
    mass: 78.960000
    reduced_to: 65
  - symbol: Se # 67
    coordinates: [  0.036015020000000,  0.687062395000000,  0.873890180000000 ]
    mass: 78.960000
    reduced_to: 65
  - symbol: Se # 68
    coordinates: [  0.536015020000000,  0.687062395000000,  0.873890180000000 ]
    mass: 78.960000
    reduced_to: 65
  - symbol: Se # 69
    coordinates: [  0.301725005000000,  0.287785830000000,  0.485061170000000 ]
    mass: 78.960000
    reduced_to: 69
  - symbol: Se # 70
    coordinates: [  0.801725005000000,  0.287785830000000,  0.485061170000000 ]
    mass: 78.960000
    reduced_to: 69
  - symbol: Se # 71
    coordinates: [  0.301725005000000,  0.787785830000000,  0.485061170000000 ]
    mass: 78.960000
    reduced_to: 69
  - symbol: Se # 72
    coordinates: [  0.801725005000000,  0.787785830000000,  0.485061170000000 ]
    mass: 78.960000
    reduced_to: 69
  - symbol: Se # 73
    coordinates: [  0.051725005000000,  0.462214170000000,  0.514938830000000 ]
    mass: 78.960000
    reduced_to: 73
  - symbol: Se # 74
    coordinates: [  0.551725005000000,  0.462214170000000,  0.514938830000000 ]
    mass: 78.960000
    reduced_to: 73
  - symbol: Se # 75
    coordinates: [  0.051725005000000,  0.962214170000000,  0.514938830000000 ]
    mass: 78.960000
    reduced_to: 73
  - symbol: Se # 76
    coordinates: [  0.551725005000000,  0.962214170000000,  0.514938830000000 ]
    mass: 78.960000
    reduced_to: 73
  - symbol: Se # 77
    coordinates: [  0.296099560000000,  0.380133200000000,  0.835750240000000 ]
    mass: 78.960000
    reduced_to: 77
  - symbol: Se # 78
    coordinates: [  0.796099560000000,  0.380133200000000,  0.835750240000000 ]
    mass: 78.960000
    reduced_to: 77
  - symbol: Se # 79
    coordinates: [  0.296099560000000,  0.880133200000000,  0.835750240000000 ]
    mass: 78.960000
    reduced_to: 77
  - symbol: Se # 80
    coordinates: [  0.796099560000000,  0.880133200000000,  0.835750240000000 ]
    mass: 78.960000
    reduced_to: 77
  - symbol: Se # 81
    coordinates: [  0.122778145000000,  0.064727205000000,  0.349430780000000 ]
    mass: 78.960000
    reduced_to: 81
  - symbol: Se # 82
    coordinates: [  0.622778145000000,  0.064727205000000,  0.349430780000000 ]
    mass: 78.960000
    reduced_to: 81
  - symbol: Se # 83
    coordinates: [  0.122778145000000,  0.564727205000000,  0.349430780000000 ]
    mass: 78.960000
    reduced_to: 81
  - symbol: Se # 84
    coordinates: [  0.622778145000000,  0.564727205000000,  0.349430780000000 ]
    mass: 78.960000
    reduced_to: 81
  - symbol: Se # 85
    coordinates: [  0.213984980000000,  0.312937605000000,  0.373890180000000 ]
    mass: 78.960000
    reduced_to: 85
  - symbol: Se # 86
    coordinates: [  0.713984980000000,  0.312937605000000,  0.373890180000000 ]
    mass: 78.960000
    reduced_to: 85
  - symbol: Se # 87
    coordinates: [  0.213984980000000,  0.812937605000000,  0.373890180000000 ]
    mass: 78.960000
    reduced_to: 85
  - symbol: Se # 88
    coordinates: [  0.713984980000000,  0.812937605000000,  0.373890180000000 ]
    mass: 78.960000
    reduced_to: 85
  - symbol: Se # 89
    coordinates: [  0.203900440000000,  0.130133200000000,  0.664249760000000 ]
    mass: 78.960000
    reduced_to: 89
  - symbol: Se # 90
    coordinates: [  0.703900440000000,  0.130133200000000,  0.664249760000000 ]
    mass: 78.960000
    reduced_to: 89
  - symbol: Se # 91
    coordinates: [  0.203900440000000,  0.630133200000000,  0.664249760000000 ]
    mass: 78.960000
    reduced_to: 89
  - symbol: Se # 92
    coordinates: [  0.703900440000000,  0.630133200000000,  0.664249760000000 ]
    mass: 78.960000
    reduced_to: 89
  - symbol: Se # 93
    coordinates: [  0.487680885000000,  0.072340115000000,  0.701699880000000 ]
    mass: 78.960000
    reduced_to: 93
  - symbol: Se # 94
    coordinates: [  0.987680885000000,  0.072340115000000,  0.701699880000000 ]
    mass: 78.960000
    reduced_to: 93
  - symbol: Se # 95
    coordinates: [  0.487680885000000,  0.572340115000000,  0.701699880000000 ]
    mass: 78.960000
    reduced_to: 93
  - symbol: Se # 96
    coordinates: [  0.987680885000000,  0.572340115000000,  0.701699880000000 ]
    mass: 78.960000
    reduced_to: 93
  - symbol: Se # 97
    coordinates: [  0.127221855000000,  0.435272795000000,  0.849430780000000 ]
    mass: 78.960000
    reduced_to: 97
  - symbol: Se # 98
    coordinates: [  0.627221855000000,  0.435272795000000,  0.849430780000000 ]
    mass: 78.960000
    reduced_to: 97
  - symbol: Se # 99
    coordinates: [  0.127221855000000,  0.935272795000000,  0.849430780000000 ]
    mass: 78.960000
    reduced_to: 97
  - symbol: Se # 100
    coordinates: [  0.627221855000000,  0.935272795000000,  0.849430780000000 ]
    mass: 78.960000
    reduced_to: 97
  - symbol: Se # 101
    coordinates: [  0.453900440000000,  0.119866800000000,  0.335750240000000 ]
    mass: 78.960000
    reduced_to: 101
  - symbol: Se # 102
    coordinates: [  0.953900440000000,  0.119866800000000,  0.335750240000000 ]
    mass: 78.960000
    reduced_to: 101
  - symbol: Se # 103
    coordinates: [  0.453900440000000,  0.619866800000000,  0.335750240000000 ]
    mass: 78.960000
    reduced_to: 101
  - symbol: Se # 104
    coordinates: [  0.953900440000000,  0.619866800000000,  0.335750240000000 ]
    mass: 78.960000
    reduced_to: 101
  - symbol: Se # 105
    coordinates: [  0.377221855000000,  0.314727205000000,  0.150569220000000 ]
    mass: 78.960000
    reduced_to: 105
  - symbol: Se # 106
    coordinates: [  0.877221855000000,  0.314727205000000,  0.150569220000000 ]
    mass: 78.960000
    reduced_to: 105
  - symbol: Se # 107
    coordinates: [  0.377221855000000,  0.814727205000000,  0.150569220000000 ]
    mass: 78.960000
    reduced_to: 105
  - symbol: Se # 108
    coordinates: [  0.877221855000000,  0.814727205000000,  0.150569220000000 ]
    mass: 78.960000
    reduced_to: 105
  - symbol: Se # 109
    coordinates: [  0.448274995000000,  0.212214170000000,  0.985061170000000 ]
    mass: 78.960000
    reduced_to: 109
  - symbol: Se # 110
    coordinates: [  0.948274995000000,  0.212214170000000,  0.985061170000000 ]
    mass: 78.960000
    reduced_to: 109
  - symbol: Se # 111
    coordinates: [  0.448274995000000,  0.712214170000000,  0.985061170000000 ]
    mass: 78.960000
    reduced_to: 109
  - symbol: Se # 112
    coordinates: [  0.948274995000000,  0.712214170000000,  0.985061170000000 ]
    mass: 78.960000
    reduced_to: 109
