# epsilon and Z* of atoms 1 4 7 10 19 22
   3.52226000    0.00000000    0.00000000    0.00000000    3.52226000    0.00000000    0.00000000    0.00000000    3.55589458 
   2.44258140   -0.02966328   -0.16840948   -0.02966328    2.47683361   -0.09723126   -0.04070529   -0.02350121    2.46044160 
  -2.10471779    0.82054689    0.09566785    0.83743053   -1.93873461   -0.16889161    0.08080099   -0.15119618   -2.16696612 
  -1.41006773   -0.00000000    0.00000000    0.00000000   -1.89030728    0.45701942    0.00000000    0.43451802   -2.30308722 
  -2.09783639   -0.36008093    0.32158629   -0.31785893   -2.06783404    0.16422596    0.28901387    0.18523359   -1.68837231 
   3.00063282   -0.12742685   -0.20311136   -0.12742685    3.14777267   -0.11726640   -0.10030865   -0.05791322    3.57928714 
   4.50895054    0.31791870    0.14774310    0.31791870    4.14184964    0.08529952    0.13687471    0.07902465    3.97403533 
