natom:   48
displacements:
- atom:    1
  displacement:
    [   0.0100000000000000,  0.0000000000000000,  0.0000000000000000 ]
- atom:    1
  displacement:
    [  -0.0100000000000000,  0.0000000000000000,  0.0000000000000000 ]
- atom:    1
  displacement:
    [   0.0000000000000000,  0.0000000000000000,  0.0100000000000000 ]
- atom:    7
  displacement:
    [   0.0100000000000000,  0.0000000000000000,  0.0000000000000000 ]
- atom:    7
  displacement:
    [  -0.0100000000000000,  0.0000000000000000,  0.0000000000000000 ]
- atom:    7
  displacement:
    [  -0.0050000000006408,  0.0086602540374744,  0.0000000000000000 ]
- atom:    7
  displacement:
    [   0.0050000000006408, -0.0086602540374744,  0.0000000000000000 ]
- atom:    7
  displacement:
    [   0.0000000000000000,  0.0000000000000000,  0.0100000000000000 ]
- atom:    7
  displacement:
    [   0.0000000000000000,  0.0000000000000000, -0.0100000000000000 ]
- atom:   13
  displacement:
    [  -0.0050000000006408,  0.0086602540374744,  0.0000000000000000 ]
- atom:   13
  displacement:
    [   0.0050000000006408, -0.0086602540374744,  0.0000000000000000 ]
- atom:   13
  displacement:
    [   0.0000000000000000,  0.0000000000000000,  0.0100000000000000 ]
- atom:   19
  displacement:
    [   0.0100000000000000,  0.0000000000000000,  0.0000000000000000 ]
- atom:   19
  displacement:
    [  -0.0100000000000000,  0.0000000000000000,  0.0000000000000000 ]
- atom:   19
  displacement:
    [  -0.0050000000006408,  0.0086602540374744,  0.0000000000000000 ]
- atom:   19
  displacement:
    [   0.0050000000006408, -0.0086602540374744,  0.0000000000000000 ]
- atom:   19
  displacement:
    [   0.0000000000000000,  0.0000000000000000,  0.0100000000000000 ]
- atom:   19
  displacement:
    [   0.0000000000000000,  0.0000000000000000, -0.0100000000000000 ]
- atom:   37
  displacement:
    [   0.0100000000000000,  0.0000000000000000,  0.0000000000000000 ]
- atom:   37
  displacement:
    [  -0.0100000000000000,  0.0000000000000000,  0.0000000000000000 ]
- atom:   37
  displacement:
    [   0.0000000000000000,  0.0000000000000000,  0.0100000000000000 ]
- atom:   43
  displacement:
    [   0.0100000000000000,  0.0000000000000000,  0.0000000000000000 ]
- atom:   43
  displacement:
    [  -0.0100000000000000,  0.0000000000000000,  0.0000000000000000 ]
- atom:   43
  displacement:
    [   0.0000000000000000,  0.0000000000000000,  0.0100000000000000 ]
lattice:
- [     6.8130576600000001,     0.0000000000000000,     0.0000000000000000 ] # a
- [    -3.4065288300000001,     5.9002810099999996,     0.0000000000000000 ] # b
- [     0.0000000000000000,     0.0000000000000000,    13.5600523800000001 ] # c
atoms:
- symbol: B  # 1
  position: [  0.0000000000000000,  0.1091343500000000,  0.3333333350000000 ]
  mass: 10.811000
- symbol: B  # 2
  position: [  0.0000000000000000,  0.1091343500000000,  0.8333333350000001 ]
  mass: 10.811000
- symbol: B  # 3
  position: [  0.8908656500000000,  0.8908656500000000,  0.0000000000000000 ]
  mass: 10.811000
- symbol: B  # 4
  position: [  0.8908656500000000,  0.8908656500000000,  0.5000000000000000 ]
  mass: 10.811000
- symbol: B  # 5
  position: [  0.1091343500000000,  0.0000000000000000,  0.1666666650000000 ]
  mass: 10.811000
- symbol: B  # 6
  position: [  0.1091343500000000,  0.0000000000000000,  0.6666666649999999 ]
  mass: 10.811000
- symbol: O  # 7
  position: [  0.5304266500000000,  0.1371936100000000,  0.0003738450000000 ]
  mass: 15.999400
- symbol: O  # 8
  position: [  0.5304266500000000,  0.1371936100000000,  0.5003738450000000 ]
  mass: 15.999400
- symbol: O  # 9
  position: [  0.6067669700000000,  0.4695733500000000,  0.3337071800000000 ]
  mass: 15.999400
- symbol: O  # 10
  position: [  0.6067669700000000,  0.4695733500000000,  0.8337071800000000 ]
  mass: 15.999400
- symbol: O  # 11
  position: [  0.8628063900000000,  0.3932330300000000,  0.1670405150000000 ]
  mass: 15.999400
- symbol: O  # 12
  position: [  0.8628063900000000,  0.3932330300000000,  0.6670405150000001 ]
  mass: 15.999400
- symbol: O  # 13
  position: [  0.0403090300000000,  0.0000000000000000,  0.4166666650000000 ]
  mass: 15.999400
- symbol: O  # 14
  position: [  0.0403090300000000,  0.0000000000000000,  0.9166666649999999 ]
  mass: 15.999400
- symbol: O  # 15
  position: [  0.9596909700000000,  0.9596909700000000,  0.2500000000000000 ]
  mass: 15.999400
- symbol: O  # 16
  position: [  0.9596909700000000,  0.9596909700000000,  0.7500000000000000 ]
  mass: 15.999400
- symbol: O  # 17
  position: [  0.0000000000000000,  0.0403090300000000,  0.0833333350000000 ]
  mass: 15.999400
- symbol: O  # 18
  position: [  0.0000000000000000,  0.0403090300000000,  0.5833333350000000 ]
  mass: 15.999400
- symbol: O  # 19
  position: [  0.1913262200000000,  0.3458854200000000,  0.3193085000000000 ]
  mass: 15.999400
- symbol: O  # 20
  position: [  0.1913262200000000,  0.3458854200000000,  0.8193085000000000 ]
  mass: 15.999400
- symbol: O  # 21
  position: [  0.1545592000000000,  0.8086737800000000,  0.1526418300000000 ]
  mass: 15.999400
- symbol: O  # 22
  position: [  0.1545592000000000,  0.8086737800000000,  0.6526418300000000 ]
  mass: 15.999400
- symbol: O  # 23
  position: [  0.6541145800000000,  0.8454408000000000,  0.4859751650000000 ]
  mass: 15.999400
- symbol: O  # 24
  position: [  0.6541145800000000,  0.8454408000000000,  0.9859751649999999 ]
  mass: 15.999400
- symbol: O  # 25
  position: [  0.8454408000000000,  0.6541145800000000,  0.0140248350000000 ]
  mass: 15.999400
- symbol: O  # 26
  position: [  0.8454408000000000,  0.6541145800000000,  0.5140248350000000 ]
  mass: 15.999400
- symbol: O  # 27
  position: [  0.3458854200000000,  0.1913262200000000,  0.1806915000000000 ]
  mass: 15.999400
- symbol: O  # 28
  position: [  0.3458854200000000,  0.1913262200000000,  0.6806915000000000 ]
  mass: 15.999400
- symbol: O  # 29
  position: [  0.8086737800000000,  0.1545592000000000,  0.3473581700000000 ]
  mass: 15.999400
- symbol: O  # 30
  position: [  0.8086737800000000,  0.1545592000000000,  0.8473581700000000 ]
  mass: 15.999400
- symbol: O  # 31
  position: [  0.4695733500000000,  0.6067669700000000,  0.1662928200000000 ]
  mass: 15.999400
- symbol: O  # 32
  position: [  0.4695733500000000,  0.6067669700000000,  0.6662928200000000 ]
  mass: 15.999400
- symbol: O  # 33
  position: [  0.1371936100000000,  0.5304266500000000,  0.4996261550000000 ]
  mass: 15.999400
- symbol: O  # 34
  position: [  0.1371936100000000,  0.5304266500000000,  0.9996261550000001 ]
  mass: 15.999400
- symbol: O  # 35
  position: [  0.3932330300000000,  0.8628063900000000,  0.3329594850000000 ]
  mass: 15.999400
- symbol: O  # 36
  position: [  0.3932330300000000,  0.8628063900000000,  0.8329594849999999 ]
  mass: 15.999400
- symbol: Si # 37
  position: [  0.0000000000000000,  0.5809678500000000,  0.0833333350000000 ]
  mass: 28.085500
- symbol: Si # 38
  position: [  0.0000000000000000,  0.5809678500000000,  0.5833333350000000 ]
  mass: 28.085500
- symbol: Si # 39
  position: [  0.4190321500000000,  0.4190321500000000,  0.2500000000000000 ]
  mass: 28.085500
- symbol: Si # 40
  position: [  0.4190321500000000,  0.4190321500000000,  0.7500000000000000 ]
  mass: 28.085500
- symbol: Si # 41
  position: [  0.5809678500000000,  0.0000000000000000,  0.4166666650000000 ]
  mass: 28.085500
- symbol: Si # 42
  position: [  0.5809678500000000,  0.0000000000000000,  0.9166666649999999 ]
  mass: 28.085500
- symbol: La # 43
  position: [  0.0000000000000000,  0.6012817800000000,  0.3333333350000000 ]
  mass: 138.905470
- symbol: La # 44
  position: [  0.0000000000000000,  0.6012817800000000,  0.8333333350000001 ]
  mass: 138.905470
- symbol: La # 45
  position: [  0.3987182200000000,  0.3987182200000000,  0.0000000000000000 ]
  mass: 138.905470
- symbol: La # 46
  position: [  0.3987182200000000,  0.3987182200000000,  0.5000000000000000 ]
  mass: 138.905470
- symbol: La # 47
  position: [  0.6012817800000000,  0.0000000000000000,  0.1666666650000000 ]
  mass: 138.905470
- symbol: La # 48
  position: [  0.6012817800000000,  0.0000000000000000,  0.6666666649999999 ]
  mass: 138.905470