  48   48
1 1
    28.521381000000005    -0.687794499999999     0.185274000000000
    -0.687794500235039    29.315577679579974     0.106967993792116
     0.189169323086158     0.109216959587551    33.689794000000006
1 2
     0.032047000000000    -0.031953500000000    -0.005447000000000
    -0.031953500010920     0.068943723659406    -0.003144826916813
    -0.005644783666294    -0.003259017368695    -0.629414000000000
1 3
     0.036948000000000     0.109628500000000     0.129814500000000
    -0.109764648569185    -0.301182061275241    -0.247051355654934
    -0.129353615180309    -0.247368846045854    -0.863961000000000
1 4
     1.660213000000000     0.645321000000000    -0.969912500000000
    -0.645702510729212    -1.428403401471816     2.111295167927351
     0.969869537569578     2.110549000628363    -3.749926000000000
1 5
    -0.656414500000000     0.691803000000000     1.343479000000000
     1.982826511186152     0.888224098528183    -1.895616448555272
     2.312723819573119    -0.215342842565778    -3.749926000000001
1 6
    -0.216708500000000     0.036684000000000    -0.149045500000000
     0.256077148619185    -0.047525561275241     0.235948332626251
    -0.278904512407310     0.011660906224564    -0.863961000000000
1 7
     0.089501500000000    -0.058761000000000     0.085008000000000
     0.018559111494131    -0.048879928841577    -0.030231792150742
    -0.065205927441364     0.030215912681390     0.435337500000000
1 8
     1.078035000000000    -0.013758000000000    -0.940883000000000
    -0.112957602681417    -0.176697712691144     0.206222010636271
     0.289654982019433     0.089500016699390    -0.217699500000000
1 9
     0.715213500000000     0.017790000000000     0.122341500000000
     1.665891518995084     0.704032855274508     0.187469962564923
    -0.508871973426161     0.106181035867490    -0.926239000000000
1 10
     0.013871000000000    -0.000184500000000    -0.016101500000000
     0.009400010654746     0.001621089110374    -0.007806641666181
     0.037857858307383     0.006610090784591     0.479296500000000
1 11
    -0.015255000000000    -0.384054500000000     0.376912500000000
    -0.201134126987996     0.101145811336272    -0.344650109277040
     0.115851005516606    -0.099563270119028    -0.169380000000000
1 12
     0.011154500000000    -0.078273500000000    -0.012334500000000
    -0.053173457964708    -0.029626563432442     0.069643164908033
     0.030987255525845    -0.043047059773366     0.442722000000000
1 13
    -6.863085500000000     1.609515500000000    -3.587777000000000
     1.279389840334945    -5.529543775938292     3.395237007659755
    -2.888564720560207     3.450323473972050   -10.325367000000002
1 14
     0.000866000000000    -0.019317000000000    -0.044229000000000
    -0.023574935579890     0.010285003886027     0.139837699323236
    -0.008243753396419    -0.093159189200788     0.682268500000000
1 15
    -4.611996500000000    -0.020277000000000     1.146473000000000
     0.309848660208150    -7.780632775938291    -4.804724529474300
     1.543785419964031    -4.226732165039227   -10.325367000000002
1 16
    -0.010642500000000    -0.016930500000000     0.098988500000000
    -0.012672564432497     0.021793503886027    -0.108222287252145
    -0.084800101155838     0.039440294737781     0.682268500000000
1 17
    -0.055114500000000     0.106992000000000    -0.439435500000000
     0.030123519983505    -0.199940182380135     1.161134818652634
     0.123150979771744     0.062329551063786     1.259527500000000
1 18
    -0.104361000000000     0.058556000000000     0.785854500000000
     0.135424480073068    -0.150693682380135    -0.961129715716059
     0.115554464522813     0.075487101433157     1.259527500000000
1 19
    -4.257272000000000    -0.987712000000001     0.413293500000000
    -1.481440038240110    -8.323077739433995     0.533869154482772
     0.392182730467722    -0.229419990461410    -4.650547000000000
1 20
    -0.003785000000000     0.007827500000000    -0.012790000000000
    -0.009173120385216    -0.025712105710046    -0.006112407300955
    -0.061279814922623    -0.038931295044862     0.383262500000000
1 21
    -0.022355500000000    -0.088784000000000     0.157462000000000
    -0.546003926442378     0.457331480164727     0.324962753769444
    -0.866985833255879     0.692355161145842     0.579199000000000
1 22
     0.100543500000000    -0.016194500000000    -0.001867500000000
    -0.112944187268047     0.116115755847457     0.034364754053442
     0.111287494706061    -0.021574579398590     0.377449500000000
1 23
    -0.847437000000000     0.693118000000000    -0.752981500000000
     0.755517652591358     0.091345482691513    -0.087786397120417
    -1.184393166469063    -0.393434517273653     0.202479500000000
1 24
    -0.061475500000000     0.022068000000000     0.022063500000000
     0.076080547823158     0.069637076165724    -0.013697923813999
     0.173876058797706     0.001513338963296     0.356934000000000
1 25
     0.056304000000000    -0.087402500000000     0.028827000000000
     0.009347187232644     0.160355255847457    -0.018799679468565
     0.036959613514694     0.107165087221803     0.377449500000000
1 26
     0.062538500000000    -0.595017500000000     0.360157000000000
    -0.137797573791299     0.372437480164727    -0.026115284730717
     0.166104241468079    -1.097009336765439     0.579199000000000
1 27
     0.483927500000000    -0.013146000000000    -0.452516000000000
    -0.075545652358989    -1.240019017308487    -0.608207909130926
    -0.932920869977402    -0.828997311418813     0.202479500000000
1 28
     0.079358500000000    -0.005230000000000    -0.000831000000000
    -0.059242547817404    -0.071196923834276     0.025956513406662
     0.088248619385828     0.149824414521353     0.356934000000000
1 29
    -8.375800500000000     0.896393500000000     0.668991000000000
     1.390121538208903    -4.204549239433995     0.090988093038755
    -0.002592174675652     0.454350202683264    -4.650547000000000
1 30
    -0.020813000000000     0.000658000000000    -0.011688500000000
     0.017658620388116    -0.008684105710046    -0.008020261265818
    -0.064355397978150    -0.033604228930701     0.383262500000000
1 31
     0.082116000000000     0.462036500000000    -0.291848000000000
     0.561236102834608     0.819221287308855    -0.917939585446277
     0.222336779123764     0.206098564368997    -0.217699500000000
1 32
    -0.031692500000000     0.088530500000000     0.016322500000000
     0.011210388516043     0.072314071158423     0.088734983612858
    -0.006435215735595    -0.071577945972592     0.435337500000000
1 33
    -0.181348500000000    -0.105240000000000    -0.110019500000000
    -0.288160373179212     0.267239311336272     0.498740854698196
    -0.028298818463360     0.150111548873723    -0.169380000000000
1 34
    -0.076349500000000    -0.002653000000000     0.054145500000000
    -0.027753042062947     0.057877436567558    -0.045503572798821
    -0.021786219565410     0.048359280361039     0.442722000000000
1 35
     1.435883500000000     1.249812500000000     0.223524500000000
    -0.398289018561902    -0.016637144725492     0.012215865672736
    -0.162480512235975    -0.493786574119420    -0.926239000000000
1 36
     0.008674000000000     0.012400500000000    -0.014811500000000
     0.002815989349428     0.006818089110374    -0.010040987208327
     0.024653435695446     0.029480821629168     0.479296500000000
1 37
     0.037973000000000     0.207642000000000    -0.148926500000000
     0.008847728364645    -0.523986736301061     0.130506275595864
     0.025410490499582    -0.405100640820418    -0.674125500000000
1 38
    -0.289754000000000     0.198061000000000     0.038558500000000
     0.396855271773997    -0.196259736301061    -0.194227270116673
    -0.338122200849991     0.224556450701710    -0.674125500000000
1 39
    -2.280800000000001    -1.823611000000000     1.132156000000000
    -4.037262000437661    -1.099416062396148     2.861317912378690
     1.001823448748801     1.286919612939170     0.615631500000000
1 40
    -0.003350000000000    -0.004790500000000     0.007814000000000
     0.007259047647080     0.047472783352640    -0.029918868304788
    -0.021195845677926    -0.017540918449134    -0.781070500000000
1 41
    -3.932594500000000    -3.083598000000000     3.044052000000000
    -0.869947001239297     0.552378437603850    -0.450183098974840
     1.615416801998591     0.224144750105569     0.615631500000000
1 42
     0.035836000000000    -0.015365000000000    -0.022003500000000
    -0.027414547653967     0.008286783352640     0.021726556658722
    -0.025788803824220    -0.009585681584075    -0.781070500000000
1 43
    -0.345178500000000     2.634503500000001    -0.041409500000000
     2.634503500900298    -3.387241110331809    -0.023907785976093
     0.080254665365485     0.046335052644569     2.711696000000000
1 44
    -0.019388500000000     0.014508500000000     0.003061500000000
     0.014508500004958    -0.036141472763938     0.001767557849426
    -0.022333236868557    -0.012894100315734    -0.899868000000000
1 45
    -0.030838000000000    -0.048302500000000     0.191776000000000
     0.035048020967462     0.156706477045626     0.252051497662105
     0.080207953471384     0.143333054286034    -0.840904000000000
1 46
    -0.716779500000000    -0.736625500000000    -1.007528000000000
    -0.737772126050035     0.269001699625753    -1.630866709070441
    -0.771900568173063    -1.206884906976751    -0.050991500000000
1 47
    -0.615876500000000    -0.796028500000000    -1.916136000000000
    -0.794881874473724     0.168098699625753    -0.057111488637996
    -1.431143273151006    -0.065043047630917    -0.050991500000000
1 48
     0.104081000000000    -0.042847500000000     0.314171000000000
    -0.126198020998611     0.021787477045626     0.040057139033490
     0.164234042970621    -0.002204401863107    -0.840904000000000
2 1
     0.032047000000000    -0.031953500000000    -0.005447000000000
    -0.031953500010920     0.068943723659406    -0.003144826916813
    -0.005644783666294    -0.003259017368695    -0.629414000000000
2 2
    28.521381000000005    -0.687794499999998     0.185274000000000
    -0.687794500235039    29.315577679579974     0.106967993792116
     0.189169323086158     0.109216959587551    33.689794000000006
2 3
     1.660213000000000     0.645321000000000    -0.969912500000000
    -0.645702510729212    -1.428403401471816     2.111295167927351
     0.969869537569578     2.110549000628363    -3.749926000000000
2 4
     0.036948000000000     0.109628500000000     0.129814500000000
    -0.109764648569185    -0.301182061275241    -0.247051355654934
    -0.129353615180309    -0.247368846045854    -0.863961000000000
2 5
    -0.216708500000000     0.036684000000000    -0.149045500000000
     0.256077148619185    -0.047525561275241     0.235948332626251
    -0.278904512407310     0.011660906224564    -0.863961000000000
2 6
    -0.656414500000000     0.691803000000000     1.343479000000000
     1.982826511186152     0.888224098528183    -1.895616448555272
     2.312723819573119    -0.215342842565778    -3.749926000000001
2 7
     1.078035000000000    -0.013758000000000    -0.940883000000000
    -0.112957602681417    -0.176697712691144     0.206222010636271
     0.289654982019433     0.089500016699390    -0.217699500000000
2 8
     0.089501500000000    -0.058761000000000     0.085008000000000
     0.018559111494131    -0.048879928841577    -0.030231792150742
    -0.065205927441364     0.030215912681390     0.435337500000000
2 9
     0.013871000000000    -0.000184500000000    -0.016101500000000
     0.009400010654746     0.001621089110374    -0.007806641666181
     0.037857858307383     0.006610090784591     0.479296500000000
2 10
     0.715213500000000     0.017790000000000     0.122341500000000
     1.665891518995084     0.704032855274508     0.187469962564923
    -0.508871973426161     0.106181035867490    -0.926239000000000
2 11
     0.011154500000000    -0.078273500000000    -0.012334500000000
    -0.053173457964708    -0.029626563432442     0.069643164908033
     0.030987255525845    -0.043047059773366     0.442722000000000
2 12
    -0.015255000000000    -0.384054500000000     0.376912500000000
    -0.201134126987996     0.101145811336272    -0.344650109277040
     0.115851005516606    -0.099563270119028    -0.169380000000000
2 13
     0.000866000000000    -0.019317000000000    -0.044229000000000
    -0.023574935579890     0.010285003886027     0.139837699323236
    -0.008243753396419    -0.093159189200788     0.682268500000000
2 14
    -6.863085500000000     1.609515500000000    -3.587777000000000
     1.279389840334945    -5.529543775938292     3.395237007659755
    -2.888564720560207     3.450323473972050   -10.325367000000002
2 15
    -0.010642500000000    -0.016930500000000     0.098988500000000
    -0.012672564432497     0.021793503886027    -0.108222287252145
    -0.084800101155838     0.039440294737781     0.682268500000000
2 16
    -4.611996500000000    -0.020277000000000     1.146473000000000
     0.309848660208150    -7.780632775938291    -4.804724529474300
     1.543785419964031    -4.226732165039227   -10.325367000000002
2 17
    -0.104361000000000     0.058556000000000     0.785854500000000
     0.135424480073068    -0.150693682380135    -0.961129715716059
     0.115554464522813     0.075487101433157     1.259527500000000
2 18
    -0.055114500000000     0.106992000000000    -0.439435500000000
     0.030123519983505    -0.199940182380135     1.161134818652634
     0.123150979771744     0.062329551063786     1.259527500000000
2 19
    -0.003785000000000     0.007827500000000    -0.012790000000000
    -0.009173120385216    -0.025712105710046    -0.006112407300955
    -0.061279814922623    -0.038931295044862     0.383262500000000
2 20
    -4.257272000000000    -0.987712000000001     0.413293500000000
    -1.481440038240111    -8.323077739433995     0.533869154482772
     0.392182730467722    -0.229419990461410    -4.650547000000000
2 21
     0.100543500000000    -0.016194500000000    -0.001867500000000
    -0.112944187268047     0.116115755847457     0.034364754053442
     0.111287494706061    -0.021574579398590     0.377449500000000
2 22
    -0.022355500000000    -0.088784000000000     0.157462000000000
    -0.546003926442378     0.457331480164727     0.324962753769444
    -0.866985833255879     0.692355161145842     0.579199000000000
2 23
    -0.061475500000000     0.022068000000000     0.022063500000000
     0.076080547823158     0.069637076165724    -0.013697923813999
     0.173876058797706     0.001513338963296     0.356934000000000
2 24
    -0.847437000000000     0.693118000000000    -0.752981500000000
     0.755517652591358     0.091345482691513    -0.087786397120417
    -1.184393166469063    -0.393434517273653     0.202479500000000
2 25
     0.062538500000000    -0.595017500000000     0.360157000000000
    -0.137797573791299     0.372437480164727    -0.026115284730717
     0.166104241468079    -1.097009336765439     0.579199000000000
2 26
     0.056304000000000    -0.087402500000000     0.028827000000000
     0.009347187232644     0.160355255847457    -0.018799679468565
     0.036959613514694     0.107165087221803     0.377449500000000
2 27
     0.079358500000000    -0.005230000000000    -0.000831000000000
    -0.059242547817404    -0.071196923834276     0.025956513406662
     0.088248619385828     0.149824414521353     0.356934000000000
2 28
     0.483927500000000    -0.013146000000000    -0.452516000000000
    -0.075545652358989    -1.240019017308487    -0.608207909130926
    -0.932920869977402    -0.828997311418813     0.202479500000000
2 29
    -0.020813000000000     0.000658000000000    -0.011688500000000
     0.017658620388116    -0.008684105710046    -0.008020261265818
    -0.064355397978150    -0.033604228930701     0.383262500000000
2 30
    -8.375800500000000     0.896393500000000     0.668991000000000
     1.390121538208903    -4.204549239433995     0.090988093038755
    -0.002592174675652     0.454350202683264    -4.650547000000000
2 31
    -0.031692500000000     0.088530500000000     0.016322500000000
     0.011210388516043     0.072314071158423     0.088734983612858
    -0.006435215735595    -0.071577945972592     0.435337500000000
2 32
     0.082116000000000     0.462036500000000    -0.291848000000000
     0.561236102834608     0.819221287308855    -0.917939585446277
     0.222336779123764     0.206098564368997    -0.217699500000000
2 33
    -0.076349500000000    -0.002653000000000     0.054145500000000
    -0.027753042062947     0.057877436567558    -0.045503572798821
    -0.021786219565410     0.048359280361039     0.442722000000000
2 34
    -0.181348500000000    -0.105240000000000    -0.110019500000000
    -0.288160373179212     0.267239311336272     0.498740854698196
    -0.028298818463360     0.150111548873723    -0.169380000000000
2 35
     0.008674000000000     0.012400500000000    -0.014811500000000
     0.002815989349428     0.006818089110374    -0.010040987208327
     0.024653435695446     0.029480821629168     0.479296500000000
2 36
     1.435883500000000     1.249812500000000     0.223524500000000
    -0.398289018561902    -0.016637144725492     0.012215865672736
    -0.162480512235975    -0.493786574119420    -0.926239000000000
2 37
    -0.289754000000000     0.198061000000000     0.038558500000000
     0.396855271773997    -0.196259736301061    -0.194227270116673
    -0.338122200849991     0.224556450701710    -0.674125500000000
2 38
     0.037973000000000     0.207642000000000    -0.148926500000000
     0.008847728364645    -0.523986736301061     0.130506275595864
     0.025410490499582    -0.405100640820418    -0.674125500000000
2 39
    -0.003350000000000    -0.004790500000000     0.007814000000000
     0.007259047647080     0.047472783352640    -0.029918868304788
    -0.021195845677926    -0.017540918449134    -0.781070500000000
2 40
    -2.280800000000001    -1.823611000000000     1.132156000000000
    -4.037262000437661    -1.099416062396149     2.861317912378690
     1.001823448748801     1.286919612939170     0.615631500000000
2 41
     0.035836000000000    -0.015365000000000    -0.022003500000000
    -0.027414547653967     0.008286783352640     0.021726556658722
    -0.025788803824220    -0.009585681584075    -0.781070500000000
2 42
    -3.932594500000000    -3.083598000000000     3.044052000000000
    -0.869947001239297     0.552378437603850    -0.450183098974840
     1.615416801998591     0.224144750105569     0.615631500000000
2 43
    -0.019388500000000     0.014508500000000     0.003061500000000
     0.014508500004958    -0.036141472763938     0.001767557849426
    -0.022333236868557    -0.012894100315734    -0.899868000000000
2 44
    -0.345178500000000     2.634503500000001    -0.041409500000000
     2.634503500900298    -3.387241110331809    -0.023907785976093
     0.080254665365485     0.046335052644569     2.711696000000000
2 45
    -0.716779500000000    -0.736625500000000    -1.007528000000000
    -0.737772126050035     0.269001699625753    -1.630866709070441
    -0.771900568173063    -1.206884906976751    -0.050991500000000
2 46
    -0.030838000000000    -0.048302500000000     0.191776000000000
     0.035048020967462     0.156706477045626     0.252051497662105
     0.080207953471384     0.143333054286034    -0.840904000000000
2 47
     0.104081000000000    -0.042847500000000     0.314171000000000
    -0.126198020998611     0.021787477045626     0.040057139033490
     0.164234042970621    -0.002204401863107    -0.840904000000000
2 48
    -0.615876500000000    -0.796028500000000    -1.916136000000000
    -0.794881874473724     0.168098699625753    -0.057111488637996
    -1.431143273151006    -0.065043047630917    -0.050991500000000
3 1
     0.036948000006752    -0.109628500033565    -0.129814500000000
     0.109764648585620    -0.301182061368676    -0.247051355654934
     0.129353615183760    -0.247368846128396    -0.863961000000000
3 2
     1.660212999669977    -0.645321000411066     0.969912499999999
     0.645702510775086    -1.428403401933465     2.111295167927352
    -0.969869537633309     2.110549001312815    -3.749926000000001
3 3
    28.521380992588174     0.687794495955817    -0.185274000000000
     0.687794495720775    29.315577686991816     0.106967993792116
    -0.189169323053835     0.109216959643536    33.689794000000006
3 4
     0.032046999987058     0.031953500003448     0.005447000000000
     0.031953499992528     0.068943723672348    -0.003144826916813
     0.005644783665329    -0.003259017370366    -0.629414000000000
3 5
    -0.656414499729390    -0.691803000080177    -1.343478999999999
    -1.982826510809389     0.888224099049245    -1.895616448555273
    -2.312723818948502    -0.215342842278744    -3.749926000000000
3 6
    -0.216708499939029    -0.036683999977335     0.149045500000000
    -0.256077148546520    -0.047525561249529     0.235948332626251
     0.278904512334101     0.011660906186282    -0.863961000000000
3 7
     1.435883499816923    -1.249812500532802    -0.223524500000000
     0.398289018462282    -0.016637144788692     0.012215865672736
     0.162480512267399    -0.493786574270021    -0.926239000000000
3 8
     0.008673999999612    -0.012400500004462     0.014811500000000
    -0.002815989349715     0.006818089112539    -0.010040987208327
    -0.024653435693490     0.029480821640372     0.479296500000000
3 9
    -0.076349499980824     0.002653000011978    -0.054145500000000
     0.027753042047270     0.057877436578285    -0.045503572798821
     0.021786219552670     0.048359280370210     0.442722000000000
3 10
    -0.181348499969093     0.105240000053808     0.110019500000000
     0.288160373065812     0.267239311362125     0.498740854698196
     0.028298818433895     0.150111548908009    -0.169380000000000
3 11
     0.082116000047324    -0.462036500130571     0.291848000000000
    -0.561236102811988     0.819221287601872    -0.917939585446277
    -0.222336779097276     0.206098564454720    -0.217699500000000
3 12
    -0.031692499978777    -0.088530500018001    -0.016322500000000
    -0.011210388523870     0.072314071178616     0.088734983612858
     0.006435215744537    -0.071577945991890     0.435337500000000
3 13
     0.000865999996920     0.019317000004823     0.044229000000000
     0.023574935572326     0.010285003885174     0.139837699323236
     0.008243753408091    -0.093159189225884     0.682268500000000
3 14
    -6.863085498002817    -1.609515499396951     3.587776999999998
    -1.279389839188801    -5.529543777166202     3.395237007659757
     2.888564719309305     3.450323474428934   -10.325367000000002
3 15
    -0.055114499970042    -0.106992000019266     0.439435499999999
    -0.030123519946199    -0.199940182426923     1.161134818652635
    -0.123150979749404     0.062329551097985     1.259527500000000
3 16
    -0.104360999964587    -0.058555999999565    -0.785854500000000
    -0.135424480016060    -0.150693682398719    -0.961129715716059
    -0.115554464504367     0.075487101469604     1.259527500000000
3 17
    -4.611996498820941     0.020277000687661    -1.146472999999997
    -0.309848658977394    -7.780632777886625    -4.804724529474302
    -1.543785418942906    -4.226732165894099   -10.325367000000002
3 18
    -0.010642499999778     0.016930500005914    -0.098988500000000
     0.012672564426024     0.021793503889737    -0.108222287252145
     0.084800101128267     0.039440294735341     0.682268500000000
3 19
     0.056303999972636     0.087402500014070    -0.028827000000000
    -0.009347187253977     0.160355255889940    -0.018799679468565
    -0.036959613521079     0.107165087254738     0.377449500000000
3 20
     0.062538499895923     0.595017500143249    -0.360157000000000
     0.137797573700870     0.372437480239792    -0.026115284730716
    -0.166104241263177    -1.097009337022024     0.579199000000000
3 21
     0.483927499874024     0.013145999931761     0.452516000000000
     0.075545652523118    -1.240019017637484    -0.608207909130926
     0.932920869860964    -0.828997311769335     0.202479500000000
3 22
     0.079358499978886     0.005229999989597     0.000831000000000
     0.059242547812755    -0.071196923861290     0.025956513406662
    -0.088248619385380     0.149824414572812     0.356934000000000
3 23
    -0.020812999994568    -0.000657999997089     0.011688500000000
    -0.017658620382305    -0.008684105709658    -0.008020261265818
     0.064355397966629    -0.033604228948837     0.383262500000000
3 24
    -8.375800497720633    -0.896393498990335    -0.668991000000000
    -1.390121537230444    -4.204549240305923     0.090988093038755
     0.002592174607755     0.454350202799331    -4.650547000000000
3 25
    -4.257271999055014     0.987712000883124    -0.413293500000000
     1.481440039092028    -8.323077741786424     0.533869154482772
    -0.392182730333257    -0.229419990462177    -4.650547000000000
3 26
    -0.003784999997872    -0.007827500001446     0.012790000000000
     0.009173120386670    -0.025712105717993    -0.006112407300955
     0.061279814912677    -0.038931295063908     0.383262500000000
3 27
    -0.022355500007408     0.088784000026063    -0.157462000000000
     0.546003926234764     0.457331480201146     0.324962753769445
     0.866985832931219     0.692355161195000     0.579199000000000
3 28
     0.100543499971834     0.016194499989273     0.001867500000000
     0.112944187221917     0.116115755860505     0.034364754053442
    -0.111287494674346    -0.021574579387652     0.377449500000000
3 29
    -0.061475499980978    -0.022067999996559    -0.022063500000000
    -0.076080547813963     0.069637076194830    -0.013697923813999
    -0.173876058753366     0.001513338989413     0.356934000000000
3 30
    -0.847436999680237    -0.693118000052247     0.752981500000000
    -0.755517652411235     0.091345482826722    -0.087786397120417
     1.184393166223721    -0.393434517549752     0.202479500000000
3 31
    -0.015255000052921     0.384054500100691    -0.376912500000000
     0.201134126921479     0.101145811332433    -0.344650109277040
    -0.115851005472181    -0.099563270127403    -0.169380000000000
3 32
     0.011154499985559     0.078273500018411     0.012334500000000
     0.053173457955464    -0.029626563447904     0.069643164908033
    -0.030987255511533    -0.043047059779814     0.442722000000000
3 33
     0.013870999996418     0.000184499997995     0.016101500000000
    -0.009400010652577     0.001621089112181    -0.007806641666181
    -0.037857858298658     0.006610090791887     0.479296500000000
3 34
     0.715213499819323    -0.017790000110394    -0.122341500000000
    -1.665891518672296     0.704032855701463     0.187469962564923
     0.508871973280024     0.106181035819404    -0.926239000000000
3 35
     0.089501499968366     0.058761000001816    -0.085008000000000
    -0.018559111482141    -0.048879928851359    -0.030231792150742
     0.065205927420180     0.030215912679485     0.435337500000000
3 36
     1.078034999721663     0.013757999844004     0.940883000000000
     0.112957602678612    -0.176697712753147     0.206222010636271
    -0.289654981958438     0.089500016765191    -0.217699500000000
3 37
    -2.280799999685279     1.823611000804894    -1.132156000000001
     4.037261999565597    -1.099416063275345     2.861317912378693
    -1.001823448682465     1.286919613417253     0.615631500000000
3 38
    -0.003349999999850     0.004790500001724    -0.007814000000000
    -0.007259047652244     0.047472783365881    -0.029918868304788
     0.021195845675089    -0.017540918456767    -0.781070500000000
3 39
     0.037973000020993    -0.207642000058838     0.148926500000000
    -0.008847728284841    -0.523986736434050     0.130506275595864
    -0.025410490433124    -0.405100640920485    -0.674125500000000
3 40
    -0.289753999896427    -0.198061000007887    -0.038558500000000
    -0.396855271643241    -0.196259736292638    -0.194227270116673
     0.338122200730101     0.224556450709230    -0.674125500000000
3 41
     0.035835999988542     0.015364999998635     0.022003500000000
     0.027414547645715     0.008286783350707     0.021726556658722
     0.025788803819029    -0.009585681590347    -0.781070500000000
3 42
    -3.932594499448369     3.083598001372253    -3.044051999999999
     0.869947000934592     0.552378437616694    -0.450183098974839
    -1.615416801617726     0.224144750402059     0.615631500000000
3 43
    -0.030837999999244     0.048302500016943    -0.191776000000000
    -0.035048020981668     0.156706477090977     0.252051497662105
    -0.080207953472036     0.143333054334639    -0.840904000000000
3 44
    -0.716779499925291     0.736625500294863     1.007528000000000
     0.737772125821138     0.269001699585526    -1.630866709070442
     0.771900568153814    -1.206884907400299    -0.050991500000000
3 45
    -0.345178499521688    -2.634503500624145     0.041409500000000
    -2.634503499723848    -3.387241110810120    -0.023907785976093
    -0.080254665351772     0.046335052668321     2.711696000000000
3 46
    -0.019388499992884    -0.014508500000850    -0.003061500000000
    -0.014508499995891    -0.036141472771054     0.001767557849426
     0.022333236864741    -0.012894100322344    -0.899868000000000
3 47
    -0.615876499959943     0.796028500295157     1.916135999999999
     0.794881874245122     0.168098699551214    -0.057111488637997
     1.431143272793828    -0.065043047859361    -0.050991500000000
3 48
     0.104080999966984     0.042847499995580    -0.314171000000000
     0.126198020963043     0.021787477032536     0.040057139033490
    -0.164234042928202    -0.002204401839370    -0.840904000000000
4 1
     1.660212999669977    -0.645321000411066     0.969912499999999
     0.645702510775086    -1.428403401933465     2.111295167927352
    -0.969869537633309     2.110549001312815    -3.749926000000001
4 2
     0.036948000006752    -0.109628500033565    -0.129814500000000
     0.109764648585620    -0.301182061368676    -0.247051355654934