phonopy:
  version: "2.21.2"
  frequency_unit_conversion_factor: 15.633302
  symmetry_tolerance: 1.00000e-05
  configuration:
    force_constants: "WRITE"
    dim: "1 0 0 0 1 0 0 0 2"
    full_force_constants: ".TRUE."

physical_unit:
  atomic_mass: "AMU"
  length: "angstrom"
  force_constants: "eV/angstrom^2"

space_group:
  type: "P3_121"
  number: 152
  Hall_symbol: "P 31 2\""

supercell_matrix:
- [   1,   0,   0 ]
- [   0,   1,   0 ]
- [   0,   0,   2 ]

primitive_cell:
  lattice:
  - [     6.813057660000000,     0.000000000000000,     0.000000000000000 ] # a
  - [    -3.406528830000000,     5.900281010000000,     0.000000000000000 ] # b
  - [     0.000000000000000,     0.000000000000000,     6.780026190000000 ] # c
  points:
  - symbol: B  # 1
    coordinates: [  0.000000000000000,  0.109134350000000,  0.666666670000000 ]
    mass: 10.811000
  - symbol: B  # 2
    coordinates: [  0.890865650000000,  0.890865650000000,  0.000000000000000 ]
    mass: 10.811000
  - symbol: B  # 3
    coordinates: [  0.109134350000000,  0.000000000000000,  0.333333330000000 ]
    mass: 10.811000
  - symbol: O  # 4
    coordinates: [  0.530426650000000,  0.137193610000000,  0.000747690000000 ]
    mass: 15.999400
  - symbol: O  # 5
    coordinates: [  0.606766970000000,  0.469573350000000,  0.667414360000000 ]
    mass: 15.999400
  - symbol: O  # 6
    coordinates: [  0.862806390000000,  0.393233030000000,  0.334081030000000 ]
    mass: 15.999400
  - symbol: O  # 7
    coordinates: [  0.040309030000000,  0.000000000000000,  0.833333330000000 ]
    mass: 15.999400
  - symbol: O  # 8
    coordinates: [  0.959690970000000,  0.959690970000000,  0.500000000000000 ]
    mass: 15.999400
  - symbol: O  # 9
    coordinates: [  0.000000000000000,  0.040309030000000,  0.166666670000000 ]
    mass: 15.999400
  - symbol: O  # 10
    coordinates: [  0.191326220000000,  0.345885420000000,  0.638617000000000 ]
    mass: 15.999400
  - symbol: O  # 11
    coordinates: [  0.154559200000000,  0.808673780000000,  0.305283660000000 ]
    mass: 15.999400
  - symbol: O  # 12
    coordinates: [  0.654114580000000,  0.845440800000000,  0.971950330000000 ]
    mass: 15.999400
  - symbol: O  # 13
    coordinates: [  0.845440800000000,  0.654114580000000,  0.028049670000000 ]
    mass: 15.999400
  - symbol: O  # 14
    coordinates: [  0.345885420000000,  0.191326220000000,  0.361383000000000 ]
    mass: 15.999400
  - symbol: O  # 15
    coordinates: [  0.808673780000000,  0.154559200000000,  0.694716340000000 ]
    mass: 15.999400
  - symbol: O  # 16
    coordinates: [  0.469573350000000,  0.606766970000000,  0.332585640000000 ]
    mass: 15.999400
  - symbol: O  # 17
    coordinates: [  0.137193610000000,  0.530426650000000,  0.999252310000000 ]
    mass: 15.999400
  - symbol: O  # 18
    coordinates: [  0.393233030000000,  0.862806390000000,  0.665918970000000 ]
    mass: 15.999400
  - symbol: Si # 19
    coordinates: [  0.000000000000000,  0.580967850000000,  0.166666670000000 ]
    mass: 28.085500
  - symbol: Si # 20
    coordinates: [  0.419032150000000,  0.419032150000000,  0.500000000000000 ]
    mass: 28.085500
  - symbol: Si # 21
    coordinates: [  0.580967850000000,  0.000000000000000,  0.833333330000000 ]
    mass: 28.085500
  - symbol: La # 22
    coordinates: [  0.000000000000000,  0.601281780000000,  0.666666670000000 ]
    mass: 138.905470
  - symbol: La # 23
    coordinates: [  0.398718220000000,  0.398718220000000,  0.000000000000000 ]
    mass: 138.905470
  - symbol: La # 24
    coordinates: [  0.601281780000000,  0.000000000000000,  0.333333330000000 ]
    mass: 138.905470
  reciprocal_lattice: # without 2pi
  - [     0.146776975904824,     0.084741726563969,     0.000000000000000 ] # a*
  - [     0.000000000000000,     0.169483453127938,     0.000000000000000 ] # b*
  - [     0.000000000000000,     0.000000000000000,     0.147492055631720 ] # c*

unit_cell:
  lattice:
  - [     6.813057660000000,     0.000000000000000,     0.000000000000000 ] # a
  - [    -3.406528830000000,     5.900281010000000,     0.000000000000000 ] # b
  - [     0.000000000000000,     0.000000000000000,     6.780026190000000 ] # c
  points:
  - symbol: B  # 1
    coordinates: [  0.000000000000000,  0.109134350000000,  0.666666670000000 ]
    mass: 10.811000
    reduced_to: 1
  - symbol: B  # 2
    coordinates: [  0.890865650000000,  0.890865650000000,  0.000000000000000 ]
    mass: 10.811000
    reduced_to: 2
  - symbol: B  # 3
    coordinates: [  0.109134350000000,  0.000000000000000,  0.333333330000000 ]
    mass: 10.811000
    reduced_to: 3
  - symbol: O  # 4
    coordinates: [  0.530426650000000,  0.137193610000000,  0.000747690000000 ]
    mass: 15.999400
    reduced_to: 4
  - symbol: O  # 5
    coordinates: [  0.606766970000000,  0.469573350000000,  0.667414360000000 ]
    mass: 15.999400
    reduced_to: 5
  - symbol: O  # 6
    coordinates: [  0.862806390000000,  0.393233030000000,  0.334081030000000 ]
    mass: 15.999400
    reduced_to: 6
  - symbol: O  # 7
    coordinates: [  0.040309030000000,  0.000000000000000,  0.833333330000000 ]
    mass: 15.999400
    reduced_to: 7
  - symbol: O  # 8
    coordinates: [  0.959690970000000,  0.959690970000000,  0.500000000000000 ]
    mass: 15.999400
    reduced_to: 8
  - symbol: O  # 9
    coordinates: [  0.000000000000000,  0.040309030000000,  0.166666670000000 ]
    mass: 15.999400
    reduced_to: 9
  - symbol: O  # 10
    coordinates: [  0.191326220000000,  0.345885420000000,  0.638617000000000 ]
    mass: 15.999400
    reduced_to: 10
  - symbol: O  # 11
    coordinates: [  0.154559200000000,  0.808673780000000,  0.305283660000000 ]
    mass: 15.999400
    reduced_to: 11
  - symbol: O  # 12
    coordinates: [  0.654114580000000,  0.845440800000000,  0.971950330000000 ]
    mass: 15.999400
    reduced_to: 12
  - symbol: O  # 13
    coordinates: [  0.845440800000000,  0.654114580000000,  0.028049670000000 ]
    mass: 15.999400
    reduced_to: 13
  - symbol: O  # 14
    coordinates: [  0.345885420000000,  0.191326220000000,  0.361383000000000 ]
    mass: 15.999400
    reduced_to: 14
  - symbol: O  # 15
    coordinates: [  0.808673780000000,  0.154559200000000,  0.694716340000000 ]
    mass: 15.999400
    reduced_to: 15
  - symbol: O  # 16
    coordinates: [  0.469573350000000,  0.606766970000000,  0.332585640000000 ]
    mass: 15.999400
    reduced_to: 16
  - symbol: O  # 17
    coordinates: [  0.137193610000000,  0.530426650000000,  0.999252310000000 ]
    mass: 15.999400
    reduced_to: 17
  - symbol: O  # 18
    coordinates: [  0.393233030000000,  0.862806390000000,  0.665918970000000 ]
    mass: 15.999400
    reduced_to: 18
  - symbol: Si # 19
    coordinates: [  0.000000000000000,  0.580967850000000,  0.166666670000000 ]
    mass: 28.085500
    reduced_to: 19
  - symbol: Si # 20
    coordinates: [  0.419032150000000,  0.419032150000000,  0.500000000000000 ]
    mass: 28.085500
    reduced_to: 20
  - symbol: Si # 21
    coordinates: [  0.580967850000000,  0.000000000000000,  0.833333330000000 ]
    mass: 28.085500
    reduced_to: 21
  - symbol: La # 22
    coordinates: [  0.000000000000000,  0.601281780000000,  0.666666670000000 ]
    mass: 138.905470
    reduced_to: 22
  - symbol: La # 23
    coordinates: [  0.398718220000000,  0.398718220000000,  0.000000000000000 ]
    mass: 138.905470
    reduced_to: 23
  - symbol: La # 24
    coordinates: [  0.601281780000000,  0.000000000000000,  0.333333330000000 ]
    mass: 138.905470
    reduced_to: 24

supercell:
  lattice:
  - [     6.813057660000000,     0.000000000000000,     0.000000000000000 ] # a
  - [    -3.406528830000000,     5.900281010000000,     0.000000000000000 ] # b
  - [     0.000000000000000,     0.000000000000000,    13.560052380000000 ] # c
  points:
  - symbol: B  # 1
    coordinates: [  0.000000000000000,  0.109134350000000,  0.333333335000000 ]
    mass: 10.811000
    reduced_to: 1
  - symbol: B  # 2
    coordinates: [  0.000000000000000,  0.109134350000000,  0.833333335000000 ]
    mass: 10.811000
    reduced_to: 1
  - symbol: B  # 3
    coordinates: [  0.890865650000000,  0.890865650000000,  0.000000000000000 ]
    mass: 10.811000
    reduced_to: 3
  - symbol: B  # 4
    coordinates: [  0.890865650000000,  0.890865650000000,  0.500000000000000 ]
    mass: 10.811000
    reduced_to: 3
  - symbol: B  # 5
    coordinates: [  0.109134350000000,  0.000000000000000,  0.166666665000000 ]
    mass: 10.811000
    reduced_to: 5
  - symbol: B  # 6
    coordinates: [  0.109134350000000,  0.000000000000000,  0.666666665000000 ]
    mass: 10.811000
    reduced_to: 5
  - symbol: O  # 7
    coordinates: [  0.530426650000000,  0.137193610000000,  0.000373845000000 ]
    mass: 15.999400
    reduced_to: 7
  - symbol: O  # 8
    coordinates: [  0.530426650000000,  0.137193610000000,  0.500373845000000 ]
    mass: 15.999400
    reduced_to: 7
  - symbol: O  # 9
    coordinates: [  0.606766970000000,  0.469573350000000,  0.333707180000000 ]
    mass: 15.999400
    reduced_to: 9
  - symbol: O  # 10
    coordinates: [  0.606766970000000,  0.469573350000000,  0.833707180000000 ]
    mass: 15.999400
    reduced_to: 9
  - symbol: O  # 11
    coordinates: [  0.862806390000000,  0.393233030000000,  0.167040515000000 ]
    mass: 15.999400
    reduced_to: 11
  - symbol: O  # 12
    coordinates: [  0.862806390000000,  0.393233030000000,  0.667040515000000 ]
    mass: 15.999400
    reduced_to: 11
  - symbol: O  # 13
    coordinates: [  0.040309030000000,  0.000000000000000,  0.416666665000000 ]
    mass: 15.999400
    reduced_to: 13
  - symbol: O  # 14
    coordinates: [  0.040309030000000,  0.000000000000000,  0.916666665000000 ]
    mass: 15.999400
    reduced_to: 13
  - symbol: O  # 15
    coordinates: [  0.959690970000000,  0.959690970000000,  0.250000000000000 ]
    mass: 15.999400
    reduced_to: 15
  - symbol: O  # 16
    coordinates: [  0.959690970000000,  0.959690970000000,  0.750000000000000 ]
    mass: 15.999400
    reduced_to: 15
  - symbol: O  # 17
    coordinates: [  0.000000000000000,  0.040309030000000,  0.083333335000000 ]
    mass: 15.999400
    reduced_to: 17
  - symbol: O  # 18
    coordinates: [  0.000000000000000,  0.040309030000000,  0.583333335000000 ]
    mass: 15.999400
    reduced_to: 17
  - symbol: O  # 19
    coordinates: [  0.191326220000000,  0.345885420000000,  0.319308500000000 ]
    mass: 15.999400
    reduced_to: 19
  - symbol: O  # 20
    coordinates: [  0.191326220000000,  0.345885420000000,  0.819308500000000 ]
    mass: 15.999400
    reduced_to: 19
  - symbol: O  # 21
    coordinates: [  0.154559200000000,  0.808673780000000,  0.152641830000000 ]
    mass: 15.999400
    reduced_to: 21
  - symbol: O  # 22
    coordinates: [  0.154559200000000,  0.808673780000000,  0.652641830000000 ]
    mass: 15.999400
    reduced_to: 21
  - symbol: O  # 23
    coordinates: [  0.654114580000000,  0.845440800000000,  0.485975165000000 ]
    mass: 15.999400
    reduced_to: 23
  - symbol: O  # 24
    coordinates: [  0.654114580000000,  0.845440800000000,  0.985975165000000 ]
    mass: 15.999400
    reduced_to: 23
  - symbol: O  # 25
    coordinates: [  0.845440800000000,  0.654114580000000,  0.014024835000000 ]
    mass: 15.999400
    reduced_to: 25
  - symbol: O  # 26
    coordinates: [  0.845440800000000,  0.654114580000000,  0.514024835000000 ]
    mass: 15.999400
    reduced_to: 25
  - symbol: O  # 27
    coordinates: [  0.345885420000000,  0.191326220000000,  0.180691500000000 ]
    mass: 15.999400
    reduced_to: 27
  - symbol: O  # 28
    coordinates: [  0.345885420000000,  0.191326220000000,  0.680691500000000 ]
    mass: 15.999400
    reduced_to: 27
  - symbol: O  # 29
    coordinates: [  0.808673780000000,  0.154559200000000,  0.347358170000000 ]
    mass: 15.999400
    reduced_to: 29
  - symbol: O  # 30
    coordinates: [  0.808673780000000,  0.154559200000000,  0.847358170000000 ]
    mass: 15.999400
    reduced_to: 29
  - symbol: O  # 31
    coordinates: [  0.469573350000000,  0.606766970000000,  0.166292820000000 ]
    mass: 15.999400
    reduced_to: 31
  - symbol: O  # 32
    coordinates: [  0.469573350000000,  0.606766970000000,  0.666292820000000 ]
    mass: 15.999400
    reduced_to: 31
  - symbol: O  # 33
    coordinates: [  0.137193610000000,  0.530426650000000,  0.499626155000000 ]
    mass: 15.999400
    reduced_to: 33
  - symbol: O  # 34
    coordinates: [  0.137193610000000,  0.530426650000000,  0.999626155000000 ]
    mass: 15.999400
    reduced_to: 33
  - symbol: O  # 35
    coordinates: [  0.393233030000000,  0.862806390000000,  0.332959485000000 ]
    mass: 15.999400
    reduced_to: 35
  - symbol: O  # 36
    coordinates: [  0.393233030000000,  0.862806390000000,  0.832959485000000 ]
    mass: 15.999400
    reduced_to: 35
  - symbol: Si # 37
    coordinates: [  0.000000000000000,  0.580967850000000,  0.083333335000000 ]
    mass: 28.085500
    reduced_to: 37
  - symbol: Si # 38
    coordinates: [  0.000000000000000,  0.580967850000000,  0.583333335000000 ]
    mass: 28.085500
    reduced_to: 37
  - symbol: Si # 39
    coordinates: [  0.419032150000000,  0.419032150000000,  0.250000000000000 ]
    mass: 28.085500
    reduced_to: 39
  - symbol: Si # 40
    coordinates: [  0.419032150000000,  0.419032150000000,  0.750000000000000 ]
    mass: 28.085500
    reduced_to: 39
  - symbol: Si # 41
    coordinates: [  0.580967850000000,  0.000000000000000,  0.416666665000000 ]
    mass: 28.085500
    reduced_to: 41
  - symbol: Si # 42
    coordinates: [  0.580967850000000,  0.000000000000000,  0.916666665000000 ]
    mass: 28.085500
    reduced_to: 41
  - symbol: La # 43
    coordinates: [  0.000000000000000,  0.601281780000000,  0.333333335000000 ]
    mass: 138.905470
    reduced_to: 43
  - symbol: La # 44
    coordinates: [  0.000000000000000,  0.601281780000000,  0.833333335000000 ]
    mass: 138.905470
    reduced_to: 43
  - symbol: La # 45
    coordinates: [  0.398718220000000,  0.398718220000000,  0.000000000000000 ]
    mass: 138.905470
    reduced_to: 45
  - symbol: La # 46
    coordinates: [  0.398718220000000,  0.398718220000000,  0.500000000000000 ]
    mass: 138.905470
    reduced_to: 45
  - symbol: La # 47
    coordinates: [  0.601281780000000,  0.000000000000000,  0.166666665000000 ]
    mass: 138.905470
    reduced_to: 47
  - symbol: La # 48
    coordinates: [  0.601281780000000,  0.000000000000000,  0.666666665000000 ]
    mass: 138.905470
    reduced_to: 47
