# epsilon and Z* of atoms 1 5 17 21
   4.91520880    0.00000000   -0.31507726    0.00000000    4.62528432    0.00000000   -0.31507909    0.00000000    4.72400586 
  -1.94477082    0.26578451    0.12879121    0.20251913   -2.11594957   -0.47219458    0.10103697   -0.56863064   -3.25773780 
  -3.20086134   -0.90759690    0.33145623   -0.92474313   -2.57116355    0.56549549    0.38322774    0.47253339   -1.56811130 
   4.46249258    0.00000000    0.01678309    0.00000000    3.86482606    0.00000000    0.40066950    0.00000000    4.26930988 
   5.82877175    0.00000000   -0.93727797    0.00000000    5.50940016    0.00000000   -1.36919891    0.00000000    5.38238831 
