natom:  144
displacements:
- atom:    1
  displacement:
    [   0.0099999990650530,  0.0000000000000000, -0.0000043242269347 ]
- atom:    1
  displacement:
    [  -0.0099999990650530,  0.0000000000000000,  0.0000043242269347 ]
- atom:    1
  displacement:
    [   0.0000000000000000,  0.0100000000000000,  0.0000000000000000 ]
- atom:    1
  displacement:
    [   0.0000000000000000, -0.0100000000000000,  0.0000000000000000 ]
- atom:    1
  displacement:
    [  -0.0065191114772711,  0.0000000000000000,  0.0075829536162971 ]
- atom:    1
  displacement:
    [   0.0065191114772711,  0.0000000000000000, -0.0075829536162971 ]
- atom:   25
  displacement:
    [   0.0099999990650530,  0.0000000000000000, -0.0000043242269347 ]
- atom:   25
  displacement:
    [  -0.0099999990650530,  0.0000000000000000,  0.0000043242269347 ]
- atom:   25
  displacement:
    [   0.0000000000000000,  0.0100000000000000,  0.0000000000000000 ]
- atom:   25
  displacement:
    [   0.0000000000000000, -0.0100000000000000,  0.0000000000000000 ]
- atom:   25
  displacement:
    [  -0.0065191114772711,  0.0000000000000000,  0.0075829536162971 ]
- atom:   25
  displacement:
    [   0.0065191114772711,  0.0000000000000000, -0.0075829536162971 ]
- atom:   97
  displacement:
    [   0.0099999990650530,  0.0000000000000000, -0.0000043242269347 ]
- atom:   97
  displacement:
    [   0.0000000000000000,  0.0100000000000000,  0.0000000000000000 ]
- atom:   97
  displacement:
    [   0.0000000000000000, -0.0100000000000000,  0.0000000000000000 ]
- atom:   97
  displacement:
    [  -0.0065191114772711,  0.0000000000000000,  0.0075829536162971 ]
- atom:  121
  displacement:
    [   0.0099999990650530,  0.0000000000000000, -0.0000043242269347 ]
- atom:  121
  displacement:
    [   0.0000000000000000,  0.0100000000000000,  0.0000000000000000 ]
- atom:  121
  displacement:
    [   0.0000000000000000, -0.0100000000000000,  0.0000000000000000 ]
- atom:  121
  displacement:
    [  -0.0065191114772711,  0.0000000000000000,  0.0075829536162971 ]
lattice:
- [    13.8002457599999993,     0.0000000000000000,    -0.0059675400000000 ] # a
- [     0.0000000000000000,    10.8093552000000006,     0.0000000000000000 ] # b
- [    -9.8288228699999998,     0.0000000000000000,    11.4327708900000005 ] # c
atoms:
- symbol: O  # 1
  position: [  0.3724999450000000,  0.4696517000000000,  0.0731164400000000 ]
  mass: 15.999400
- symbol: O  # 2
  position: [  0.8724999449999999,  0.4696517000000000,  0.0731164400000000 ]
  mass: 15.999400
- symbol: O  # 3
  position: [  0.3724999450000000,  0.4696517000000000,  0.4064497733333334 ]
  mass: 15.999400
- symbol: O  # 4
  position: [  0.8724999449999999,  0.4696517000000000,  0.4064497733333334 ]
  mass: 15.999400
- symbol: O  # 5
  position: [  0.3724999450000000,  0.4696517000000000,  0.7397831066666667 ]
  mass: 15.999400
- symbol: O  # 6
  position: [  0.8724999449999999,  0.4696517000000000,  0.7397831066666667 ]
  mass: 15.999400
- symbol: O  # 7
  position: [  0.1275000550000000,  0.4696517000000000,  0.0935502266666667 ]
  mass: 15.999400
- symbol: O  # 8
  position: [  0.6275000550000001,  0.4696517000000000,  0.0935502266666667 ]
  mass: 15.999400
- symbol: O  # 9
  position: [  0.1275000550000000,  0.4696517000000000,  0.4268835600000000 ]
  mass: 15.999400
- symbol: O  # 10
  position: [  0.6275000550000001,  0.4696517000000000,  0.4268835600000000 ]
  mass: 15.999400
- symbol: O  # 11
  position: [  0.1275000550000000,  0.4696517000000000,  0.7602168933333333 ]
  mass: 15.999400
- symbol: O  # 12
  position: [  0.6275000550000001,  0.4696517000000000,  0.7602168933333333 ]
  mass: 15.999400
- symbol: O  # 13
  position: [  0.3775000550000000,  0.0303483000000000,  0.2602168933333334 ]
  mass: 15.999400
- symbol: O  # 14
  position: [  0.8775000550000001,  0.0303483000000000,  0.2602168933333334 ]
  mass: 15.999400
- symbol: O  # 15
  position: [  0.3775000550000000,  0.0303483000000000,  0.5935502266666667 ]
  mass: 15.999400
- symbol: O  # 16
  position: [  0.8775000550000001,  0.0303483000000000,  0.5935502266666667 ]
  mass: 15.999400
- symbol: O  # 17
  position: [  0.3775000550000000,  0.0303483000000000,  0.9268835599999999 ]
  mass: 15.999400
- symbol: O  # 18
  position: [  0.8775000550000001,  0.0303483000000000,  0.9268835599999999 ]
  mass: 15.999400
- symbol: O  # 19
  position: [  0.1224999450000000,  0.0303483000000000,  0.2397831066666667 ]
  mass: 15.999400
- symbol: O  # 20
  position: [  0.6224999449999999,  0.0303483000000000,  0.2397831066666667 ]
  mass: 15.999400
- symbol: O  # 21
  position: [  0.1224999450000000,  0.0303483000000000,  0.5731164400000001 ]
  mass: 15.999400
- symbol: O  # 22
  position: [  0.6224999449999999,  0.0303483000000000,  0.5731164400000001 ]
  mass: 15.999400
- symbol: O  # 23
  position: [  0.1224999450000000,  0.0303483000000000,  0.9064497733333333 ]
  mass: 15.999400
- symbol: O  # 24
  position: [  0.6224999449999999,  0.0303483000000000,  0.9064497733333333 ]
  mass: 15.999400
- symbol: O  # 25
  position: [  0.1702440750000000,  0.2878677100000000,  0.2800804633333333 ]
  mass: 15.999400
- symbol: O  # 26
  position: [  0.6702440750000001,  0.2878677100000000,  0.2800804633333333 ]
  mass: 15.999400
- symbol: O  # 27
  position: [  0.1702440750000000,  0.2878677100000000,  0.6134137966666667 ]
  mass: 15.999400
- symbol: O  # 28
  position: [  0.6702440750000001,  0.2878677100000000,  0.6134137966666667 ]
  mass: 15.999400
- symbol: O  # 29
  position: [  0.1702440750000000,  0.2878677100000000,  0.9467471300000000 ]
  mass: 15.999400
- symbol: O  # 30
  position: [  0.6702440750000001,  0.2878677100000000,  0.9467471300000000 ]
  mass: 15.999400
- symbol: O  # 31
  position: [  0.3297559250000000,  0.2878677100000000,  0.2199195366666667 ]
  mass: 15.999400
- symbol: O  # 32
  position: [  0.8297559249999999,  0.2878677100000000,  0.2199195366666667 ]
  mass: 15.999400
- symbol: O  # 33
  position: [  0.3297559250000000,  0.2878677100000000,  0.5532528700000000 ]
  mass: 15.999400
- symbol: O  # 34
  position: [  0.8297559249999999,  0.2878677100000000,  0.5532528700000000 ]
  mass: 15.999400
- symbol: O  # 35
  position: [  0.3297559250000000,  0.2878677100000000,  0.8865862033333333 ]
  mass: 15.999400
- symbol: O  # 36
  position: [  0.8297559249999999,  0.2878677100000000,  0.8865862033333333 ]
  mass: 15.999400
- symbol: O  # 37
  position: [  0.0797559250000000,  0.2121322900000000,  0.0532528700000000 ]
  mass: 15.999400
- symbol: O  # 38
  position: [  0.5797559249999999,  0.2121322900000000,  0.0532528700000000 ]
  mass: 15.999400
- symbol: O  # 39
  position: [  0.0797559250000000,  0.2121322900000000,  0.3865862033333333 ]
  mass: 15.999400
- symbol: O  # 40
  position: [  0.5797559249999999,  0.2121322900000000,  0.3865862033333333 ]
  mass: 15.999400
- symbol: O  # 41
  position: [  0.0797559250000000,  0.2121322900000000,  0.7199195366666666 ]
  mass: 15.999400
- symbol: O  # 42
  position: [  0.5797559249999999,  0.2121322900000000,  0.7199195366666666 ]
  mass: 15.999400
- symbol: O  # 43
  position: [  0.4202440750000000,  0.2121322900000000,  0.1134137966666667 ]
  mass: 15.999400
- symbol: O  # 44
  position: [  0.9202440750000001,  0.2121322900000000,  0.1134137966666667 ]
  mass: 15.999400
- symbol: O  # 45
  position: [  0.4202440750000000,  0.2121322900000000,  0.4467471300000000 ]
  mass: 15.999400
- symbol: O  # 46
  position: [  0.9202440750000001,  0.2121322900000000,  0.4467471300000000 ]
  mass: 15.999400
- symbol: O  # 47
  position: [  0.4202440750000000,  0.2121322900000000,  0.7800804633333334 ]
  mass: 15.999400
- symbol: O  # 48
  position: [  0.9202440750000001,  0.2121322900000000,  0.7800804633333334 ]
  mass: 15.999400
- symbol: O  # 49
  position: [  0.1224999450000000,  0.9696517000000000,  0.0731164400000000 ]
  mass: 15.999400
- symbol: O  # 50
  position: [  0.6224999449999999,  0.9696517000000000,  0.0731164400000000 ]
  mass: 15.999400
- symbol: O  # 51
  position: [  0.1224999450000000,  0.9696517000000000,  0.4064497733333334 ]
  mass: 15.999400
- symbol: O  # 52
  position: [  0.6224999449999999,  0.9696517000000000,  0.4064497733333334 ]
  mass: 15.999400
- symbol: O  # 53
  position: [  0.1224999450000000,  0.9696517000000000,  0.7397831066666667 ]
  mass: 15.999400
- symbol: O  # 54
  position: [  0.6224999449999999,  0.9696517000000000,  0.7397831066666667 ]
  mass: 15.999400
- symbol: O  # 55
  position: [  0.3775000550000000,  0.9696517000000000,  0.0935502266666667 ]
  mass: 15.999400
- symbol: O  # 56
  position: [  0.8775000550000001,  0.9696517000000000,  0.0935502266666667 ]
  mass: 15.999400
- symbol: O  # 57
  position: [  0.3775000550000000,  0.9696517000000000,  0.4268835600000000 ]
  mass: 15.999400
- symbol: O  # 58
  position: [  0.8775000550000001,  0.9696517000000000,  0.4268835600000000 ]
  mass: 15.999400
- symbol: O  # 59
  position: [  0.3775000550000000,  0.9696517000000000,  0.7602168933333333 ]
  mass: 15.999400
- symbol: O  # 60
  position: [  0.8775000550000001,  0.9696517000000000,  0.7602168933333333 ]
  mass: 15.999400
- symbol: O  # 61
  position: [  0.1275000550000000,  0.5303483000000000,  0.2602168933333334 ]
  mass: 15.999400
- symbol: O  # 62
  position: [  0.6275000550000001,  0.5303483000000000,  0.2602168933333334 ]
  mass: 15.999400
- symbol: O  # 63
  position: [  0.1275000550000000,  0.5303483000000000,  0.5935502266666667 ]
  mass: 15.999400
- symbol: O  # 64
  position: [  0.6275000550000001,  0.5303483000000000,  0.5935502266666667 ]
  mass: 15.999400
- symbol: O  # 65
  position: [  0.1275000550000000,  0.5303483000000000,  0.9268835599999999 ]
  mass: 15.999400
- symbol: O  # 66
  position: [  0.6275000550000001,  0.5303483000000000,  0.9268835599999999 ]
  mass: 15.999400
- symbol: O  # 67
  position: [  0.3724999450000000,  0.5303483000000000,  0.2397831066666667 ]
  mass: 15.999400
- symbol: O  # 68
  position: [  0.8724999449999999,  0.5303483000000000,  0.2397831066666667 ]
  mass: 15.999400
- symbol: O  # 69
  position: [  0.3724999450000000,  0.5303483000000000,  0.5731164400000001 ]
  mass: 15.999400
- symbol: O  # 70
  position: [  0.8724999449999999,  0.5303483000000000,  0.5731164400000001 ]
  mass: 15.999400
- symbol: O  # 71
  position: [  0.3724999450000000,  0.5303483000000000,  0.9064497733333333 ]
  mass: 15.999400
- symbol: O  # 72
  position: [  0.8724999449999999,  0.5303483000000000,  0.9064497733333333 ]
  mass: 15.999400
- symbol: O  # 73
  position: [  0.4202440750000000,  0.7878677100000000,  0.2800804633333333 ]
  mass: 15.999400
- symbol: O  # 74
  position: [  0.9202440750000001,  0.7878677100000000,  0.2800804633333333 ]
  mass: 15.999400
- symbol: O  # 75
  position: [  0.4202440750000000,  0.7878677100000000,  0.6134137966666667 ]
  mass: 15.999400
- symbol: O  # 76
  position: [  0.9202440750000001,  0.7878677100000000,  0.6134137966666667 ]
  mass: 15.999400
- symbol: O  # 77
  position: [  0.4202440750000000,  0.7878677100000000,  0.9467471300000000 ]
  mass: 15.999400
- symbol: O  # 78
  position: [  0.9202440750000001,  0.7878677100000000,  0.9467471300000000 ]
  mass: 15.999400
- symbol: O  # 79
  position: [  0.0797559250000000,  0.7878677100000000,  0.2199195366666667 ]
  mass: 15.999400
- symbol: O  # 80
  position: [  0.5797559249999999,  0.7878677100000000,  0.2199195366666667 ]
  mass: 15.999400
- symbol: O  # 81
  position: [  0.0797559250000000,  0.7878677100000000,  0.5532528700000000 ]
  mass: 15.999400
- symbol: O  # 82
  position: [  0.5797559249999999,  0.7878677100000000,  0.5532528700000000 ]
  mass: 15.999400
- symbol: O  # 83
  position: [  0.0797559250000000,  0.7878677100000000,  0.8865862033333333 ]
  mass: 15.999400
- symbol: O  # 84
  position: [  0.5797559249999999,  0.7878677100000000,  0.8865862033333333 ]
  mass: 15.999400
- symbol: O  # 85
  position: [  0.3297559250000000,  0.7121322900000000,  0.0532528700000000 ]
  mass: 15.999400
- symbol: O  # 86
  position: [  0.8297559249999999,  0.7121322900000000,  0.0532528700000000 ]
  mass: 15.999400
- symbol: O  # 87
  position: [  0.3297559250000000,  0.7121322900000000,  0.3865862033333333 ]
  mass: 15.999400
- symbol: O  # 88
  position: [  0.8297559249999999,  0.7121322900000000,  0.3865862033333333 ]
  mass: 15.999400
- symbol: O  # 89
  position: [  0.3297559250000000,  0.7121322900000000,  0.7199195366666666 ]
  mass: 15.999400
- symbol: O  # 90
  position: [  0.8297559249999999,  0.7121322900000000,  0.7199195366666666 ]
  mass: 15.999400
- symbol: O  # 91
  position: [  0.1702440750000000,  0.7121322900000000,  0.1134137966666667 ]
  mass: 15.999400
- symbol: O  # 92
  position: [  0.6702440750000001,  0.7121322900000000,  0.1134137966666667 ]
  mass: 15.999400
- symbol: O  # 93
  position: [  0.1702440750000000,  0.7121322900000000,  0.4467471300000000 ]
  mass: 15.999400
- symbol: O  # 94
  position: [  0.6702440750000001,  0.7121322900000000,  0.4467471300000000 ]
  mass: 15.999400
- symbol: O  # 95
  position: [  0.1702440750000000,  0.7121322900000000,  0.7800804633333334 ]
  mass: 15.999400
- symbol: O  # 96
  position: [  0.6702440750000001,  0.7121322900000000,  0.7800804633333334 ]
  mass: 15.999400
- symbol: Er # 97
  position: [  0.0000000000000000,  0.3681181800000000,  0.2500000000000000 ]
  mass: 167.259000
- symbol: Er # 98
  position: [  0.5000000000000000,  0.3681181800000000,  0.2500000000000000 ]
  mass: 167.259000
- symbol: Er # 99
  position: [  0.0000000000000000,  0.3681181800000000,  0.5833333333333334 ]
  mass: 167.259000
- symbol: Er # 100
  position: [  0.5000000000000000,  0.3681181800000000,  0.5833333333333334 ]
  mass: 167.259000
- symbol: Er # 101
  position: [  0.0000000000000000,  0.3681181800000000,  0.9166666666666666 ]
  mass: 167.259000
- symbol: Er # 102
  position: [  0.5000000000000000,  0.3681181800000000,  0.9166666666666666 ]
  mass: 167.259000
- symbol: Er # 103
  position: [  0.2500000000000000,  0.1318818200000000,  0.0833333333333333 ]
  mass: 167.259000
- symbol: Er # 104
  position: [  0.7500000000000000,  0.1318818200000000,  0.0833333333333333 ]
  mass: 167.259000
- symbol: Er # 105
  position: [  0.2500000000000000,  0.1318818200000000,  0.4166666666666667 ]
  mass: 167.259000
- symbol: Er # 106
  position: [  0.7500000000000000,  0.1318818200000000,  0.4166666666666667 ]
  mass: 167.259000
- symbol: Er # 107
  position: [  0.2500000000000000,  0.1318818200000000,  0.7500000000000000 ]
  mass: 167.259000
- symbol: Er # 108
  position: [  0.7500000000000000,  0.1318818200000000,  0.7500000000000000 ]
  mass: 167.259000
- symbol: Er # 109
  position: [  0.2500000000000000,  0.8681181800000000,  0.2500000000000000 ]
  mass: 167.259000
- symbol: Er # 110
  position: [  0.7500000000000000,  0.8681181800000000,  0.2500000000000000 ]
  mass: 167.259000
- symbol: Er # 111
  position: [  0.2500000000000000,  0.8681181800000000,  0.5833333333333334 ]
  mass: 167.259000
- symbol: Er # 112
  position: [  0.7500000000000000,  0.8681181800000000,  0.5833333333333334 ]
  mass: 167.259000
- symbol: Er # 113
  position: [  0.2500000000000000,  0.8681181800000000,  0.9166666666666666 ]
  mass: 167.259000
- symbol: Er # 114
  position: [  0.7500000000000000,  0.8681181800000000,  0.9166666666666666 ]
  mass: 167.259000
- symbol: Er # 115
  position: [  0.0000000000000000,  0.6318818200000000,  0.0833333333333333 ]
  mass: 167.259000
- symbol: Er # 116
  position: [  0.5000000000000000,  0.6318818200000000,  0.0833333333333333 ]
  mass: 167.259000
- symbol: Er # 117
  position: [  0.0000000000000000,  0.6318818200000000,  0.4166666666666667 ]
  mass: 167.259000
- symbol: Er # 118
  position: [  0.5000000000000000,  0.6318818200000000,  0.4166666666666667 ]
  mass: 167.259000
- symbol: Er # 119
  position: [  0.0000000000000000,  0.6318818200000000,  0.7500000000000000 ]
  mass: 167.259000
- symbol: Er # 120
  position: [  0.5000000000000000,  0.6318818200000000,  0.7500000000000000 ]
  mass: 167.259000
- symbol: Ta # 121
  position: [  0.2500000000000000,  0.3986305100000000,  0.2500000000000000 ]
  mass: 180.947880
- symbol: Ta # 122
  position: [  0.7500000000000000,  0.3986305100000000,  0.2500000000000000 ]
  mass: 180.947880
- symbol: Ta # 123
  position: [  0.2500000000000000,  0.3986305100000000,  0.5833333333333334 ]
  mass: 180.947880
- symbol: Ta # 124
  position: [  0.7500000000000000,  0.3986305100000000,  0.5833333333333334 ]
  mass: 180.947880
- symbol: Ta # 125
  position: [  0.2500000000000000,  0.3986305100000000,  0.9166666666666666 ]
  mass: 180.947880
- symbol: Ta # 126
  position: [  0.7500000000000000,  0.3986305100000000,  0.9166666666666666 ]
  mass: 180.947880
- symbol: Ta # 127
  position: [  0.0000000000000000,  0.1013694900000000,  0.0833333333333333 ]
  mass: 180.947880
- symbol: Ta # 128
  position: [  0.5000000000000000,  0.1013694900000000,  0.0833333333333333 ]
  mass: 180.947880
- symbol: Ta # 129
  position: [  0.0000000000000000,  0.1013694900000000,  0.4166666666666667 ]
  mass: 180.947880
- symbol: Ta # 130
  position: [  0.5000000000000000,  0.1013694900000000,  0.4166666666666667 ]
  mass: 180.947880
- symbol: Ta # 131
  position: [  0.0000000000000000,  0.1013694900000000,  0.7500000000000000 ]
  mass: 180.947880
- symbol: Ta # 132
  position: [  0.5000000000000000,  0.1013694900000000,  0.7500000000000000 ]
  mass: 180.947880
- symbol: Ta # 133
  position: [  0.0000000000000000,  0.8986305100000000,  0.2500000000000000 ]
  mass: 180.947880
- symbol: Ta # 134
  position: [  0.5000000000000000,  0.8986305100000000,  0.2500000000000000 ]
  mass: 180.947880
- symbol: Ta # 135
  position: [  0.0000000000000000,  0.8986305100000000,  0.5833333333333334 ]
  mass: 180.947880
- symbol: Ta # 136
  position: [  0.5000000000000000,  0.8986305100000000,  0.5833333333333334 ]
  mass: 180.947880
- symbol: Ta # 137
  position: [  0.0000000000000000,  0.8986305100000000,  0.9166666666666666 ]
  mass: 180.947880
- symbol: Ta # 138
  position: [  0.5000000000000000,  0.8986305100000000,  0.9166666666666666 ]
  mass: 180.947880
- symbol: Ta # 139
  position: [  0.2500000000000000,  0.6013694900000000,  0.0833333333333333 ]
  mass: 180.947880
- symbol: Ta # 140
  position: [  0.7500000000000000,  0.6013694900000000,  0.0833333333333333 ]
  mass: 180.947880
- symbol: Ta # 141
  position: [  0.2500000000000000,  0.6013694900000000,  0.4166666666666667 ]
  mass: 180.947880
- symbol: Ta # 142
  position: [  0.7500000000000000,  0.6013694900000000,  0.4166666666666667 ]
  mass: 180.947880
- symbol: Ta # 143
  position: [  0.2500000000000000,  0.6013694900000000,  0.7500000000000000 ]
  mass: 180.947880
- symbol: Ta # 144
  position: [  0.7500000000000000,  0.6013694900000000,  0.7500000000000000 ]
  mass: 180.947880