144  
20   

1    
  0.0099999990650530   0.0000000000000000  -0.0000043242269347
  -0.0767391400   -0.0050619000   -0.0112814800
   0.0014448300   -0.0001986900    0.0001264100
   0.0011640900   -0.0000590500   -0.0020283900
   0.0004420300    0.0001071700    0.0016093600
   0.0011493200   -0.0009385400   -0.0018388800
   0.0004308300    0.0001837800    0.0020644800
   0.0024176800    0.0014978000   -0.0012275400
   0.0056110700   -0.0005896300    0.0016206400
   0.0009100300    0.0001744600   -0.0009243600
  -0.0013156300   -0.0002487800    0.0003802100
  -0.0005807700   -0.0002903500    0.0005238100
   0.0006200900   -0.0001079900   -0.0004935800
  -0.0006859300    0.0002021200   -0.0005384100
   0.0005171100   -0.0001245200   -0.0001732100
   0.0003026300    0.0000285900   -0.0006774300
  -0.0002461000    0.0002373900    0.0004063900
  -0.0004447700    0.0001551800   -0.0005901400
   0.0004912000   -0.0000014300   -0.0000733700
   0.0005097200    0.0000901200   -0.0000167900
  -0.0003372200   -0.0002115600    0.0007382000
  -0.0000559700    0.0000538400    0.0001591700
  -0.0000525300    0.0001496000    0.0002786400
  -0.0003177500    0.0002637000    0.0006402000
   0.0005253400    0.0003119400   -0.0000747500
   0.0017790500    0.0013073900   -0.0005677300
  -0.0009693700   -0.0011899800    0.0012435500
  -0.0002881600   -0.0002323200    0.0001687100
  -0.0003766800    0.0000148400    0.0002909700
  -0.0017950500    0.0041633000    0.0067187400
   0.0010647500    0.0001663900   -0.0000682300
   0.0000600800    0.0018854900   -0.0010923800
   0.0019362500   -0.0010515500   -0.0002789500
   0.0010966300   -0.0003089400   -0.0005367000
  -0.0003639000    0.0001838800    0.0002126200
  -0.0052412800   -0.0001588000   -0.0041316600
   0.0016208500   -0.0001375700   -0.0001391900
   0.0010277300    0.0008371300   -0.0002741800
   0.0003254400   -0.0008668000   -0.0002586500
   0.0008983000    0.0000020400   -0.0002500600
  -0.0005973700   -0.0011113800    0.0005606100
  -0.0007634800   -0.0003444100    0.0004652000
   0.0008543800    0.0002256800   -0.0003377400
  -0.0022622800   -0.0039426900    0.0004342100
   0.0008612600   -0.0003860500    0.0000311800
  -0.0004636300    0.0003388400   -0.0001748200
  -0.0000570200   -0.0004134300    0.0003562600
   0.0001096900   -0.0006081900   -0.0002701500
  -0.0002808100    0.0006419600    0.0008870700
   0.0001864900   -0.0010928500    0.0003914500
   0.0001800800    0.0001068800    0.0003436700
   0.0003366000   -0.0002036900   -0.0001720000
  -0.0003989100   -0.0001996000    0.0003399500
  -0.0004147500    0.0001256400    0.0006574900
   0.0003221400   -0.0002703600   -0.0000200000
  -0.0010337900   -0.0012028500   -0.0002900400
   0.0005974700   -0.0000299700   -0.0001722700
  -0.0000382000   -0.0004246600   -0.0010706800
   0.0000467000    0.0000055900    0.0001469000
   0.0001655400    0.0002575700   -0.0007867500
   0.0000209300   -0.0004115000    0.0005093200
   0.0012284600   -0.0000339500   -0.0013035400
   0.0038407000    0.0026580300    0.0115626300
   0.0002914400   -0.0013144800   -0.0018189400
  -0.0001080400    0.0004619800   -0.0004219500
   0.0120023300   -0.0047825600    0.0170741200
   0.0011417600   -0.0000835100   -0.0011414300
   0.0086156100   -0.0040832000   -0.0182071100
   0.0011735000    0.0001793300    0.0008631100
   0.0006282800    0.0003817800   -0.0008642800
  -0.0004521000   -0.0005219900    0.0021213000
   0.0086459800    0.0070224800   -0.0227401000
   0.0011873200    0.0002779000    0.0009210900
  -0.0023045500   -0.0016579500   -0.0004157100
   0.0009151200    0.0007392100    0.0001555000
   0.0003759800    0.0002485000   -0.0002635000
  -0.0009025400   -0.0004507100    0.0007850200
  -0.0004146300    0.0028894400   -0.0018011400
   0.0007647700   -0.0004761200    0.0008708400
   0.0025997900   -0.0010103600   -0.0010196300
  -0.0019965000    0.0027175800    0.0015961700
   0.0000964700    0.0005649500   -0.0001500600
   0.0004195500   -0.0006347800   -0.0005693500
   0.0000254700   -0.0013022700    0.0008081000
   0.0011054700    0.0001262300   -0.0004104400
  -0.0095047700   -0.0073614700    0.0014925400
   0.0029845500    0.0008442300   -0.0005909100
   0.0012223900    0.0000967300   -0.0010440300
   0.0006176300    0.0005265800    0.0001721900
   0.0014994700    0.0008924800   -0.0008363700
   0.0005407000   -0.0001238700    0.0002569500
   0.0134070700   -0.0103604000   -0.0054337000
   0.0057046100    0.0005402700    0.0008101700
   0.0008492100   -0.0004128000   -0.0003025100
  -0.0023710500    0.0007950800    0.0005468200
  -0.0032043100    0.0013858400    0.0007300600
   0.0005972200   -0.0002198500    0.0000444600
  -0.0023155000   -0.0003373800    0.0001057000
   0.0108402900    0.0006556500   -0.0033138100
   0.0005335900    0.0003002400   -0.0009185900
  -0.0004250700   -0.0011093700    0.0009669900
  -0.0037718800   -0.0034069800   -0.0017877400
  -0.0035250200    0.0026724700    0.0027351100
   0.0016706600   -0.0009276400    0.0005525300
  -0.0012786000    0.0009669600    0.0001844000
  -0.0005953900    0.0003370500    0.0009243300
   0.0004269800    0.0010628900   -0.0011049500
   0.0005284300    0.0005501800    0.0003575400
  -0.0005627500    0.0006811400   -0.0002649000
  -0.0000540800    0.0024058500    0.0030570300
  -0.0005240600   -0.0015430600   -0.0008503300
  -0.0005126100   -0.0008512200    0.0009595700
   0.0004208600   -0.0007698700   -0.0007943000
   0.0026321900    0.0003140400   -0.0017105400
  -0.0014928800   -0.0007654600    0.0002073200
  -0.0055057100   -0.0003045300   -0.0007497400
   0.0056948400   -0.0043679900   -0.0011391400
  -0.0011684700   -0.0002482200    0.0000395100
   0.0018465000    0.0026371700    0.0036673500
   0.0018979300    0.0022254800   -0.0045294800
  -0.0016415400    0.0004358900    0.0009871200
  -0.0054242300   -0.0037245600    0.0035173300
  -0.0034804000    0.0035558000   -0.0038457200
  -0.0015396500    0.0012717300    0.0017306600
   0.0011904500    0.0003339800   -0.0016213600
   0.0320136100    0.0059957700    0.0157378200
  -0.0027044600    0.0006032100    0.0006599300
  -0.0019070500   -0.0005829600    0.0002024000
  -0.0000885300    0.0019450500    0.0001733400
  -0.0007815100   -0.0000882400    0.0000120100
   0.0013301400   -0.0004172800    0.0003199400
   0.0010901100   -0.0010964000   -0.0017728900
  -0.0012144300   -0.0003980800    0.0007678400
  -0.0025131200    0.0007372200    0.0005601100
   0.0041192000    0.0009767200   -0.0000967200
   0.0009198400   -0.0001027200   -0.0006201500
  -0.0007837200    0.0006755200    0.0007905700
  -0.0007803900    0.0024403700   -0.0016265300
  -0.0015275400   -0.0012707200    0.0009258900
  -0.0008040400    0.0145923000    0.0091068600
  -0.0059089600   -0.0009274700    0.0014616400
  -0.0026985500   -0.0003155500    0.0020976800
   0.0023023300   -0.0020350000   -0.0054341700
   0.0021900800   -0.0023726600    0.0069457800
  -0.0012460500   -0.0002259700   -0.0005245500

1    
 -0.0099999990650530   0.0000000000000000   0.0000043242269347
   0.0770945900    0.0030063900    0.0114984300
  -0.0014787900   -0.0000654600    0.0003245100
  -0.0011552800   -0.0002039000    0.0024443100
  -0.0004259900   -0.0003624100   -0.0011870700
  -0.0011694100    0.0007054700    0.0022627600
  -0.0004373900   -0.0004238400   -0.0016532900
  -0.0024578300   -0.0017770400    0.0008259800
  -0.0055611300    0.0003233100   -0.0020166200
  -0.0008791800   -0.0004363200    0.0004814100
   0.0013553100   -0.0000191200   -0.0008444800
   0.0005922400   -0.0000948700   -0.0007905600
  -0.0006094800   -0.0001275800    0.0000738500
   0.0006994200    0.0000405800    0.0001221800
  -0.0005069900    0.0003646300   -0.0002400000
  -0.0003264300    0.0002304300    0.0002713900
   0.0002269200    0.0000234400   -0.0008067400
   0.0004760300    0.0001126200    0.0001288100
  -0.0004588900    0.0002581300   -0.0003879500
  -0.0005237500    0.0001490100    0.0004360300
   0.0003217500    0.0004602100   -0.0003302100
   0.0000219600    0.0002045100    0.0003061600
   0.0000259400    0.0001078700    0.0001778800
   0.0003416500    0.0000069500   -0.0002369300
  -0.0005088700   -0.0000526300    0.0004774300
  -0.0023478500   -0.0012417500    0.0008512200
   0.0003876200    0.0012515100   -0.0009586000
  -0.0002121800    0.0003089000    0.0001195800
  -0.0001099600    0.0000635100   -0.0000102100
   0.0013097400   -0.0040836200   -0.0065036600
  -0.0016415100   -0.0000840000    0.0003420700
   0.0005108000   -0.0018314300    0.0008153600
  -0.0013655800    0.0011122700   -0.0000048300
  -0.0005363100    0.0003966200    0.0002668800
   0.0009373900   -0.0001012200   -0.0004825200
   0.0056658700    0.0002436700    0.0038366000
  -0.0011274000    0.0002160300   -0.0001423600
  -0.0004480300   -0.0009206900   -0.0000019100
   0.0002182300    0.0007726500   -0.0000158600
  -0.0004052300   -0.0000794500   -0.0000281700
   0.0011008700    0.0010584100   -0.0008591000
   0.0013375900    0.0002861200   -0.0007405700
  -0.0002935000   -0.0002991800    0.0000542700
   0.0017263500    0.0039718400   -0.0001741600
  -0.0013542700    0.0003060300    0.0002498000
  -0.0001049600   -0.0004228300    0.0004502100
  -0.0005076500    0.0003300500   -0.0000796100
  -0.0006884900    0.0005403700    0.0005536400
  -0.0002707800   -0.0007125100   -0.0006009700
  -0.0002180300    0.0008492100    0.0000633400
  -0.0002240500   -0.0003493500    0.0001206500
  -0.0003195100   -0.0000519300    0.0005850600
   0.0004198200   -0.0000558200    0.0000712700
   0.0004036700   -0.0003600800   -0.0002366100
  -0.0003342200    0.0000367400    0.0004370400
   0.0010233600    0.0009615000   -0.0001257200
  -0.0006161200   -0.0002272900   -0.0002359000
   0.0000697700    0.0001732500    0.0006190900
  -0.0000119300   -0.0002609900   -0.0006008800
  -0.0001597500   -0.0004898000    0.0003632200
  -0.0000063000    0.0001817400   -0.0009328100
  -0.0012208100    0.0002654000    0.0008938300
  -0.0038223900   -0.0024080400   -0.0118997900
  -0.0003243200    0.0015660600    0.0014245200
   0.0000940200   -0.0002096800    0.0000162700
  -0.0120853300    0.0051074800   -0.0178511400
  -0.0011160000    0.0003347300    0.0006724100
  -0.0086615400    0.0043785300    0.0188638000
  -0.0011823900    0.0000564400   -0.0004355200
  -0.0006691100   -0.0001306700    0.0013294300
   0.0004273000    0.0007683100   -0.0016453900
  -0.0086284900   -0.0067192600    0.0229693300
  -0.0011692100   -0.0000233900   -0.0005189500
   0.0017519600    0.0017410900    0.0007047000
  -0.0014763900   -0.0006638700    0.0001287000
  -0.0008709900   -0.0001678300    0.0005461800
   0.0004140100    0.0005347300   -0.0005049900
  -0.0001427000   -0.0027773800    0.0020366500
  -0.0013364300    0.0005657800   -0.0006068800
  -0.0020578300    0.0010965800    0.0007482300
   0.0025454900   -0.0026153300   -0.0018469800
   0.0004744500   -0.0004839600   -0.0001192700
   0.0001526300    0.0007208400    0.0002989500
   0.0004745400    0.0013841600   -0.0010943400
  -0.0006116700   -0.0000514200    0.0001258900
   0.0101673400    0.0072013100   -0.0017686500
  -0.0024105000   -0.0009158300    0.0003110800
  -0.0007339300   -0.0001745400    0.0007698500
  -0.0001223200   -0.0006040700   -0.0004494800
  -0.0009513300   -0.0009761800    0.0005578600
   0.0000292300    0.0000536400   -0.0005395200
  -0.0141552300    0.0104359600    0.0057987200
  -0.0061512000   -0.0006238200   -0.0005267600
  -0.0014304600    0.0003343000    0.0005809000
   0.0018040200   -0.0008784200   -0.0002711600
   0.0026407400   -0.0014759900   -0.0004532600
  -0.0011642800    0.0001491400    0.0002391200
   0.0023160700   -0.0007627200   -0.0001097000
  -0.0108474800   -0.0017044000    0.0032649000
  -0.0005404500   -0.0014223800    0.0008768300
   0.0004166500    0.0000116100   -0.0009717100
   0.0037502800    0.0023364000    0.0017942600
   0.0035489100   -0.0037591500   -0.0027076800
  -0.0016997800    0.0020041200   -0.0005217500
   0.0012849400    0.0001388800   -0.0001790000
   0.0005986900    0.0007672000   -0.0009372200
  -0.0004156700    0.0000421200    0.0010996400
  -0.0005214300    0.0005328700   -0.0003779700
   0.0005595600    0.0004241200    0.0002678500
   0.0000510000   -0.0035405300   -0.0030816700
   0.0005220300    0.0004260700    0.0008466300
   0.0005072600   -0.0002550100   -0.0009641000
  -0.0004280700   -0.0003434000    0.0007957900
  -0.0026234300   -0.0014229800    0.0017153200
   0.0014970400   -0.0003431500   -0.0002045500
   0.0055342100    0.0014248600    0.0007650200
  -0.0052561700    0.0060033700    0.0011962200
   0.0011709600    0.0013577100   -0.0000571500
  -0.0018475700   -0.0015390000   -0.0036898700
  -0.0019371300   -0.0011059900    0.0045509000
   0.0016466800    0.0006637600   -0.0009865900
   0.0054323900    0.0046856700   -0.0035393100
   0.0034807400   -0.0026051500    0.0038033400
   0.0015567300   -0.0003404800   -0.0017617600
  -0.0011968900    0.0005982100    0.0016129000
  -0.0318244400   -0.0047323300   -0.0154014400
   0.0027028000    0.0003350100   -0.0006344900
   0.0019044300   -0.0003511300   -0.0002135100
   0.0001465700   -0.0029172500   -0.0001841700
   0.0007846800   -0.0008424200   -0.0000092900
  -0.0013478400   -0.0005195800   -0.0002988300
  -0.0011076200    0.0001499200    0.0017666400
   0.0012244900   -0.0005312900   -0.0007725200
   0.0025221200    0.0001728500   -0.0005658200
  -0.0041155600   -0.0000824100    0.0001136800
  -0.0009172100    0.0010271600    0.0006008300
   0.0007885400    0.0002473600   -0.0008107500
   0.0007666000   -0.0015345100    0.0016594200
   0.0015207100    0.0021759500   -0.0009092200
   0.0000491400   -0.0148968400   -0.0091566400
   0.0058874800   -0.0000011900   -0.0014695500
   0.0027106600   -0.0006134200   -0.0020967900
  -0.0023038900    0.0011175900    0.0054340300
  -0.0021379000    0.0015070900   -0.0069705100
   0.0012413900   -0.0006968200    0.0005328500

1    
  0.0000000000000000   0.0100000000000000   0.0000000000000000
  -0.0039105700   -0.1152209000   -0.0357701200
  -0.0000798500   -0.0008294800   -0.0001178800
  -0.0008123100   -0.0008449600    0.0011975400
   0.0003150300   -0.0007289600    0.0009139400
   0.0000645800   -0.0008305900   -0.0002785700
   0.0002347300   -0.0007178500   -0.0003206500
  -0.0016455000   -0.0029042300    0.0000627100
   0.0004390100   -0.0029774500    0.0001201900
  -0.0002902700   -0.0003808700    0.0003773100
   0.0001296100   -0.0022826700   -0.0016172200
   0.0001028700   -0.0139982200    0.0139572200
  -0.0000059300   -0.0002184200   -0.0003068900
   0.0000827800    0.0015048300   -0.0004696500
  -0.0002376200    0.0005832900   -0.0000389300
  -0.0001129900    0.0003181300    0.0000511700
   0.0000952600    0.0007201600    0.0001861400
   0.0000377700    0.0025148300    0.0010699800
  -0.0001148700    0.0005619300   -0.0002818500
  -0.0001878500    0.0005892600    0.0000614400
  -0.0001301900    0.0021768300   -0.0016691600
  -0.0000338200    0.0004671100    0.0007725200
   0.0000621400    0.0004647600    0.0000206000
   0.0003443300    0.0021910000   -0.0000557800
   0.0000413100    0.0005992300    0.0000979500
  -0.0007597900   -0.0006590900    0.0004277000
  -0.0028903600   -0.0007669300   -0.0003746400
  -0.0013033600   -0.0003843600    0.0009616000
   0.0001546400   -0.0000315400    0.0000519400
   0.0090770300    0.0070431700    0.0057144400
  -0.0010068500   -0.0002616700    0.0002069900
   0.0045970100   -0.0013268900   -0.0019028400
   0.0000083700   -0.0003849800   -0.0002833300
  -0.0000744200    0.0001101900    0.0000578900
   0.0007792300   -0.0002471500   -0.0001182900
  -0.0056307300    0.0048304300    0.0040455600
   0.0006609400   -0.0001434500   -0.0002906900
   0.0019837600    0.0004600500   -0.0006029600
  -0.0021898700   -0.0002597100   -0.0004731200
  -0.0000516500   -0.0001226600    0.0000793600
   0.0014914600    0.0030925700   -0.0021087600
   0.0010831900    0.0016363200    0.0010983500
   0.0001957700   -0.0001336700   -0.0001091200
  -0.0049833400    0.0184783900   -0.0026669900
  -0.0004200600   -0.0000741800    0.0000735200
   0.0001882600   -0.0001244500   -0.0000379800
  -0.0008028700    0.0005139100    0.0005256900
  -0.0015773600    0.0004847900    0.0006275100
   0.0009430400    0.0005701700    0.0009179500
   0.0002115300    0.0015509600    0.0001331700
  -0.0009838500    0.0015501600    0.0007462400
  -0.0001420700    0.0002087300    0.0006678200
   0.0002529800    0.0008801700    0.0009315600
  -0.0000779000    0.0008902400   -0.0004425000
  -0.0000792600    0.0002176800    0.0002493100
   0.0010742600    0.0044551300   -0.0005560300
  -0.0001081600    0.0003471000   -0.0004524500
   0.0003124000    0.0005085000    0.0003762700
  -0.0001176600    0.0002350700   -0.0000918200
  -0.0003701700    0.0004603400   -0.0005698400
   0.0003001900    0.0007449800   -0.0008968700
  -0.0001439500   -0.0003372000    0.0002768100
   0.0025346000   -0.0022013100    0.0049493400
  -0.0014510500   -0.0005682500    0.0005175700
   0.0003260200   -0.0003189100   -0.0001152600
  -0.0049090000   -0.0054894600   -0.0095308500
  -0.0001971900   -0.0004985200   -0.0010192700
  -0.0068602900   -0.0041242600    0.0105153000
  -0.0001547600   -0.0004532200    0.0009178500
  -0.0002724500   -0.0001968300    0.0007094600
   0.0006306800   -0.0006995500    0.0015787300
   0.0042173100   -0.0041153400   -0.0088477800
  -0.0000503900   -0.0004419600   -0.0003574400
   0.0003284100    0.0015942800    0.0015962300
  -0.0002227600    0.0002184100    0.0004995900
  -0.0003564600    0.0001948500    0.0002338600
  -0.0000600900    0.0003026600    0.0001065000
   0.0018640200    0.0032064700   -0.0025891100
  -0.0006275500    0.0007796600   -0.0007087700
  -0.0013208100    0.0009102300    0.0006270500
   0.0002081300    0.0029498100    0.0022212500
   0.0001792900    0.0002269700   -0.0000192100
   0.0001638600    0.0005400000    0.0002691800
  -0.0010229700    0.0012447600   -0.0018067500
   0.0002158900    0.0003584100   -0.0004092300
  -0.0055230400    0.0296529100   -0.0046630400
   0.0002531000    0.0001091600   -0.0003913400
  -0.0004499500   -0.0003328400    0.0006189500
   0.0004004500   -0.0001567300    0.0002559500
  -0.0004693300   -0.0007400300   -0.0000790600
   0.0005522000   -0.0002182500   -0.0002920700
  -0.0123606000    0.0096504100    0.0054759500
   0.0065009700    0.0003158500    0.0008972900
  -0.0006692400    0.0000359300    0.0004103000
  -0.0000853000   -0.0002241500    0.0006134500
  -0.0002684500   -0.0017654700   -0.0013311100
  -0.0002630500   -0.0001947900   -0.0000149900
   0.0003751100   -0.0001186900   -0.0002706600
  -0.0012686800    0.0129304500   -0.0073032300
  -0.0000683100   -0.0016685800   -0.0036549800
  -0.0001729400    0.0000732100   -0.0002592500
  -0.0034755800    0.0031057900    0.0003459400
   0.0040201600    0.0023672700   -0.0004736200
  -0.0036855100   -0.0043760600    0.0019443900
   0.0012402400    0.0001125200    0.0001762900
  -0.0000445800    0.0003447100   -0.0003800700
   0.0003728000   -0.0000751300    0.0006262900
   0.0010063600   -0.0022308000   -0.0024086200
  -0.0005068900    0.0001133500    0.0002074200
   0.0004314200   -0.0037763800   -0.0027385800
  -0.0003010500   -0.0023664800   -0.0007162600
   0.0002053600   -0.0007575400   -0.0002963600
  -0.0002631900   -0.0010210800   -0.0001962100
  -0.0010033600   -0.0060715700    0.0051727500
   0.0002971200   -0.0010786600    0.0004038500
   0.0033180400    0.0021078800    0.0008019100
  -0.0102690800    0.0090695000   -0.0016832800
   0.0000298500    0.0009739400   -0.0008380400
  -0.0005559400    0.0001939400   -0.0029935600
  -0.0023619000    0.0023148600    0.0024604200
   0.0002018600    0.0006044200    0.0002701600
   0.0000620700    0.0063313700   -0.0004855400
   0.0012831000    0.0038210300   -0.0004019100
   0.0016180600    0.0011304300   -0.0007517500
  -0.0008854500    0.0010922700    0.0007469700
   0.0053847100    0.0538457000    0.0361794700
   0.0001196800    0.0015367100    0.0005495600
  -0.0004518500   -0.0016798000    0.0003398100
   0.0071937300   -0.0094845900   -0.0002592200
   0.0007567100   -0.0010459100   -0.0006857100
  -0.0016250100   -0.0023510900    0.0005419500
  -0.0014511100   -0.0041128800   -0.0012260300
   0.0008430200   -0.0012996700   -0.0001674100
   0.0009065000   -0.0008330700   -0.0004095000
  -0.0008550000   -0.0055462300   -0.0019537800
   0.0000354200   -0.0002243400   -0.0001261500
   0.0001440600   -0.0001034200   -0.0004105300
   0.0004202100   -0.0027273300    0.0017088800
  -0.0009547800   -0.0028395400    0.0004089900
   0.0211500700    0.0046185700   -0.0069459400
  -0.0019142900    0.0020752100    0.0006501100
   0.0012626800   -0.0000208400   -0.0010732900
   0.0002136600    0.0001682600   -0.0032145400
   0.0046562700    0.0026315400    0.0032503400
  -0.0002020200   -0.0000720500    0.0005466000

1    
  0.0000000000000000  -0.0100000000000000   0.0000000000000000
   0.0041887000    0.1139037300    0.0368729100
   0.0000533600    0.0005823400    0.0005879500
   0.0008292500    0.0005970800   -0.0007757700
  -0.0002958100    0.0004856100   -0.0004854700
  -0.0000810100    0.0006123800    0.0007193900
  -0.0002362100    0.0004971400    0.0007613500
   0.0016287900    0.0026512200   -0.0004933000
  -0.0004723000    0.0027179500   -0.0005545300
   0.0003216200    0.0001327300   -0.0008419400
  -0.0000956000    0.0020497300    0.0011555500
  -0.0001028500    0.0138391700   -0.0144977800
   0.0000154000   -0.0000047800   -0.0001299200
  -0.0000775100   -0.0012766100    0.0000437500
   0.0002517400   -0.0003576300   -0.0003922000
   0.0000890900   -0.0000744600   -0.0004783600
  -0.0001175500   -0.0004775300   -0.0006083700
  -0.0000047500   -0.0022697000   -0.0015672300
   0.0001450200   -0.0003199400   -0.0001974400
   0.0001761000   -0.0003644500    0.0003783800
   0.0001255500   -0.0019547300    0.0021212000
   0.0000046700   -0.0002231900   -0.0002965400
  -0.0000888900   -0.0002247300    0.0004549100
  -0.0003267500   -0.0019399700    0.0004744100
  -0.0000181100   -0.0003531700    0.0003205100
   0.0002010000    0.0007514400   -0.0001456800
   0.0023296200    0.0008637500    0.0006571400
   0.0008129800    0.0004858700   -0.0006778000
  -0.0006369400    0.0001351200    0.0002286100
  -0.0096809700   -0.0069665400   -0.0055349900
   0.0004402000    0.0003692200    0.0000664500
  -0.0040422800    0.0014231900    0.0016203200
   0.0005554100    0.0004772900    0.0000018500
   0.0006295200    0.0000014600   -0.0003292400
  -0.0002119700    0.0003534300   -0.0001530700
   0.0060698900   -0.0047267600   -0.0043810500
  -0.0001733900    0.0002475200    0.0000107300
  -0.0014179300   -0.0005605200    0.0003290400
   0.0027683200    0.0001750000    0.0001937500
   0.0005483700    0.0000280400   -0.0003620200
  -0.0010014100   -0.0031807200    0.0018162700
  -0.0005157100   -0.0017228700   -0.0013794600
   0.0003647300    0.0000418600   -0.0001765300
   0.0045265900   -0.0188205600    0.0030167400
  -0.0000664700   -0.0000247400    0.0002098700
  -0.0007567200    0.0000223700    0.0003126000
   0.0002470600   -0.0006210200   -0.0002530800
   0.0010128100   -0.0005756900   -0.0003462900
  -0.0015027800   -0.0006617300   -0.0006334100
  -0.0002460300   -0.0017894000    0.0003402900
   0.0009556000   -0.0017911400   -0.0002670100
   0.0001631800   -0.0004519000   -0.0002404200
  -0.0002331600   -0.0011225800   -0.0004932900
   0.0000667500   -0.0011126600    0.0008638100
   0.0000706400   -0.0004416700    0.0001837600
  -0.0010876700   -0.0046863300    0.0001341400
   0.0000904600   -0.0005934200    0.0000282400
  -0.0002842600   -0.0007509700   -0.0008445500
   0.0001521300   -0.0004799300   -0.0003750100
   0.0003778400   -0.0006807800    0.0001237500
  -0.0002911400   -0.0009662500    0.0004578200
   0.0001559400    0.0005555200   -0.0007156700
  -0.0025337000    0.0023926200   -0.0054108800
   0.0014302400    0.0008194600   -0.0009320300
  -0.0003451000    0.0005618200   -0.0003108600
   0.0049893900    0.0056278800    0.0091013900
   0.0002223600    0.0007362000    0.0005382200
   0.0068701500    0.0042486100   -0.0101326100
   0.0001439800    0.0006729400   -0.0004801000
   0.0002379500    0.0004363700   -0.0002316100
  -0.0006609200    0.0009426500   -0.0010984000
  -0.0042367200    0.0042572500    0.0093755900
   0.0000750200    0.0006843800    0.0007861300
  -0.0008990300   -0.0015062100   -0.0012936200
  -0.0003297000   -0.0001250700   -0.0002131000
  -0.0001261300   -0.0000893000    0.0000465200
  -0.0004278700   -0.0002080900    0.0001799400
  -0.0024057900   -0.0030838500    0.0028387000
   0.0000613200   -0.0006771000    0.0009818000
   0.0018736800   -0.0008133900   -0.0009073000
   0.0003493800   -0.0028428800   -0.0024840200
   0.0003886000   -0.0001271500   -0.0002523700
   0.0004066400   -0.0004402200   -0.0005454100
   0.0014979900   -0.0011527800    0.0015129800
   0.0002855000   -0.0002703900    0.0001211300
   0.0059629700   -0.0291172400    0.0042971700
   0.0003220100   -0.0002089300    0.0001135000
   0.0009413300    0.0002332300   -0.0008998100
   0.0000917400    0.0000545300   -0.0005324800
   0.0010138300    0.0006343900   -0.0002015100
   0.0000167900    0.0001273500    0.0000083300
   0.0118071700   -0.0096381500   -0.0051546200
  -0.0068914200   -0.0004236200   -0.0006095700
   0.0000969000   -0.0001382500   -0.0001347000
  -0.0004761100    0.0001156400   -0.0003373000
  -0.0002862900    0.0016532700    0.0016036500
  -0.0002994700    0.0001032700    0.0002996200
  -0.0003782500   -0.0009862700    0.0002683600
   0.0012844400   -0.0141678300    0.0077959700
   0.0000628900    0.0005668900    0.0036506200
   0.0001678900   -0.0011757500    0.0002616200
   0.0034568800   -0.0042191900   -0.0003550300
  -0.0039878700   -0.0034808200    0.0004774300
   0.0036992500    0.0054551400   -0.0019315800
  -0.0012472200    0.0009872700   -0.0001721300
   0.0000459800    0.0007521100    0.0003728700
  -0.0003697300    0.0011689300   -0.0006375400
  -0.0010027300    0.0033154800    0.0024067000
   0.0005064400    0.0009832100   -0.0002071500
  -0.0004248900    0.0026736900    0.0027306800
   0.0002908400    0.0012618500    0.0007074300
  -0.0002099200   -0.0003397100    0.0002968200
   0.0002582500   -0.0000788400    0.0001941300
   0.0010025900    0.0049393900   -0.0051142000
  -0.0002959800   -0.0000250200   -0.0004030500
  -0.0033244700   -0.0009968400   -0.0007981700
   0.0107152000   -0.0073751400    0.0017149100
  -0.0000282700    0.0001335500    0.0008284800
   0.0005658200    0.0009215700    0.0030012200
   0.0023602000   -0.0012021200   -0.0024760700
  -0.0001976300    0.0004954600   -0.0002654600
  -0.0000842700   -0.0054071500    0.0004957500
  -0.0012767800   -0.0028924300    0.0004017200
  -0.0016104800   -0.0001939700    0.0007272900
   0.0008865900   -0.0001532800   -0.0007681400
  -0.0054404900   -0.0528957300   -0.0371697200
  -0.0001256800   -0.0005947900   -0.0005290600
   0.0004520700    0.0007324300   -0.0003543900
  -0.0072365200    0.0085432800    0.0002555900
  -0.0007597000    0.0001006300    0.0006952400
   0.0016261700    0.0013974900   -0.0005285100
   0.0014454500    0.0031619400    0.0012315000
  -0.0008427200    0.0003545600    0.0001675800
  -0.0009086500    0.0017668200    0.0004071200
   0.0008633200    0.0064656900    0.0019198800
  -0.0000330700    0.0011706100    0.0001150700
  -0.0001418700    0.0010469700    0.0003933400
  -0.0004162100    0.0036625700   -0.0016899200
   0.0009321900    0.0037725300   -0.0003830100
  -0.0216966900   -0.0050930800    0.0069378500
   0.0018933300   -0.0029874200   -0.0006606700
  -0.0012639600   -0.0009175200    0.0010889200
  -0.0002188500   -0.0011023500    0.0032351200
  -0.0046579200   -0.0035531900   -0.0032907400
   0.0001962300   -0.0008619600   -0.0005449900

1    
 -0.0065191114772711   0.0000000000000000   0.0075829536162971
   0.0418722500   -0.0243710800   -0.1601204600
  -0.0010454200   -0.0003530600   -0.0004108100
  -0.0023079300   -0.0005629800    0.0038290400
   0.0011334300   -0.0006918200    0.0014814500
  -0.0024493400    0.0011604100    0.0036974600
   0.0007770000    0.0002167800    0.0011967700
  -0.0023799800   -0.0014031900   -0.0025534100
  -0.0022879400   -0.0000834400   -0.0037000400
  -0.0010997300   -0.0007909500    0.0017035200
   0.0013579600    0.0009964000    0.0050446600
   0.0008990100   -0.0108184700    0.0148848000
  -0.0006107900   -0.0000596300    0.0004062300
   0.0002085700   -0.0001315600   -0.0012268700
  -0.0003046800    0.0004121500   -0.0000595300
  -0.0005779000    0.0003961900    0.0007794200
   0.0006021000    0.0003609700    0.0008156100
   0.0000430700    0.0011126900   -0.0013398600
  -0.0001744600    0.0001810900   -0.0005107200
  -0.0005520900    0.0002226700    0.0000078000
   0.0005397700    0.0005413100   -0.0007537700
   0.0000490800    0.0003425800    0.0015453600
  -0.0000411200   -0.0002917800    0.0014680400
   0.0006305200    0.0014806400   -0.0006892600
  -0.0005002100    0.0001311000    0.0000374600
  -0.0037067400   -0.0020724700    0.0011294700
   0.0046125300   -0.0004501800   -0.0002474400
  -0.0011414100    0.0001782700    0.0013107700
  -0.0003726300   -0.0001475400    0.0008548600
   0.0142266700    0.0082282300   -0.0078763500
  -0.0021451100    0.0001145900   -0.0000818700
  -0.0041382700   -0.0033236000   -0.0002528200
   0.0005566200   -0.0002963100   -0.0006066300
  -0.0015400000    0.0008631300    0.0008122900
   0.0020550400   -0.0003327800    0.0005832800
  -0.0104395700    0.0098679000    0.0039835500
   0.0001368300    0.0002892000   -0.0001051300
   0.0008787300   -0.0000637400   -0.0013958800
   0.0000294900    0.0014974000   -0.0020920000
  -0.0005319500   -0.0001569000    0.0004052000
  -0.0012645500   -0.0067743800    0.0046235300
   0.0022657900    0.0018551300    0.0009075800