phonopy:
  version: "2.21.2"
  frequency_unit_conversion_factor: 15.633302
  symmetry_tolerance: 1.00000e-05
  configuration:
    force_constants: "WRITE"
    dim: "2 0 0 0 1 0 0 0 3"
    primitive_axis: "1/2 1/2 0 -1/2 1/2 0 0 0 1"
    full_force_constants: ".TRUE."

physical_unit:
  atomic_mass: "AMU"
  length: "angstrom"
  force_constants: "eV/angstrom^2"

space_group:
  type: "C2/c"
  number: 15
  Hall_symbol: "-C 2yc"

primitive_matrix:
- [  0.500000000000000,  0.500000000000000,  0.000000000000000 ]
- [ -0.500000000000000,  0.500000000000000,  0.000000000000000 ]
- [  0.000000000000000,  0.000000000000000,  1.000000000000000 ]

supercell_matrix:
- [   2,   0,   0 ]
- [   0,   1,   0 ]
- [   0,   0,   3 ]

primitive_cell:
  lattice:
  - [     3.450061440000000,    -5.404677600000000,    -0.001491885000000 ] # a
  - [     3.450061440000000,     5.404677600000000,    -0.001491885000000 ] # b
  - [    -3.276274290000000,     0.000000000000000,     3.810923630000000 ] # c
  points:
  - symbol: O  # 1
    coordinates: [  0.275348190000000,  0.214651590000000,  0.219349320000000 ]
    mass: 15.999400
  - symbol: O  # 2
    coordinates: [  0.785348410000000,  0.724651810000000,  0.280650680000000 ]
    mass: 15.999400
  - symbol: O  # 3
    coordinates: [  0.724651810000000,  0.785348410000000,  0.780650680000000 ]
    mass: 15.999400
  - symbol: O  # 4
    coordinates: [  0.214651590000000,  0.275348190000000,  0.719349320000000 ]
    mass: 15.999400
  - symbol: O  # 5
    coordinates: [  0.052620440000000,  0.628355860000000,  0.840241390000000 ]
    mass: 15.999400
  - symbol: O  # 6
    coordinates: [  0.371644140000000,  0.947379560000000,  0.659758610000000 ]
    mass: 15.999400
  - symbol: O  # 7
    coordinates: [  0.947379560000000,  0.371644140000000,  0.159758610000000 ]
    mass: 15.999400
  - symbol: O  # 8
    coordinates: [  0.628355860000000,  0.052620440000000,  0.340241390000000 ]
    mass: 15.999400
  - symbol: Er # 9
    coordinates: [  0.631881820000000,  0.368118180000000,  0.750000000000000 ]
    mass: 167.259000
  - symbol: Er # 10
    coordinates: [  0.368118180000000,  0.631881820000000,  0.250000000000000 ]
    mass: 167.259000
  - symbol: Ta # 11
    coordinates: [  0.101369490000000,  0.898630510000000,  0.750000000000000 ]
    mass: 180.947880
  - symbol: Ta # 12
    coordinates: [  0.898630510000000,  0.101369490000000,  0.250000000000000 ]
    mass: 180.947880
  reciprocal_lattice: # without 2pi
  - [     0.144978852132590,    -0.092512456247159,     0.124639203498213 ] # a*
  - [     0.144978852132590,     0.092512456247159,     0.124639203498213 ] # b*
  - [     0.000113511471661,     0.000000000000000,     0.262501165555034 ] # c*

unit_cell:
  lattice:
  - [     6.900122880000000,     0.000000000000000,    -0.002983770000000 ] # a
  - [     0.000000000000000,    10.809355200000001,     0.000000000000000 ] # b
  - [    -3.276274290000000,     0.000000000000000,     3.810923630000000 ] # c
  points:
  - symbol: O  # 1
    coordinates: [  0.744999890000000,  0.469651700000000,  0.219349320000000 ]
    mass: 15.999400
    reduced_to: 1
  - symbol: O  # 2
    coordinates: [  0.255000110000000,  0.469651700000000,  0.280650680000000 ]
    mass: 15.999400
    reduced_to: 2
  - symbol: O  # 3
    coordinates: [  0.755000110000000,  0.030348300000000,  0.780650680000000 ]
    mass: 15.999400
    reduced_to: 3
  - symbol: O  # 4
    coordinates: [  0.244999890000000,  0.030348300000000,  0.719349320000000 ]
    mass: 15.999400
    reduced_to: 4
  - symbol: O  # 5
    coordinates: [  0.340488150000000,  0.287867710000000,  0.840241390000000 ]
    mass: 15.999400
    reduced_to: 5
  - symbol: O  # 6
    coordinates: [  0.659511850000000,  0.287867710000000,  0.659758610000000 ]
    mass: 15.999400
    reduced_to: 6
  - symbol: O  # 7
    coordinates: [  0.159511850000000,  0.212132290000000,  0.159758610000000 ]
    mass: 15.999400
    reduced_to: 7
  - symbol: O  # 8
    coordinates: [  0.840488150000000,  0.212132290000000,  0.340241390000000 ]
    mass: 15.999400
    reduced_to: 8
  - symbol: O  # 9
    coordinates: [  0.244999890000000,  0.969651700000000,  0.219349320000000 ]
    mass: 15.999400
    reduced_to: 1
  - symbol: O  # 10
    coordinates: [  0.755000110000000,  0.969651700000000,  0.280650680000000 ]
    mass: 15.999400
    reduced_to: 2
  - symbol: O  # 11
    coordinates: [  0.255000110000000,  0.530348300000000,  0.780650680000000 ]
    mass: 15.999400
    reduced_to: 3
  - symbol: O  # 12
    coordinates: [  0.744999890000000,  0.530348300000000,  0.719349320000000 ]
    mass: 15.999400
    reduced_to: 4
  - symbol: O  # 13
    coordinates: [  0.840488150000000,  0.787867710000000,  0.840241390000000 ]
    mass: 15.999400
    reduced_to: 5
  - symbol: O  # 14
    coordinates: [  0.159511850000000,  0.787867710000000,  0.659758610000000 ]
    mass: 15.999400
    reduced_to: 6
  - symbol: O  # 15
    coordinates: [  0.659511850000000,  0.712132290000000,  0.159758610000000 ]
    mass: 15.999400
    reduced_to: 7
  - symbol: O  # 16
    coordinates: [  0.340488150000000,  0.712132290000000,  0.340241390000000 ]
    mass: 15.999400
    reduced_to: 8
  - symbol: Er # 17
    coordinates: [  0.000000000000000,  0.368118180000000,  0.750000000000000 ]
    mass: 167.259000
    reduced_to: 17
  - symbol: Er # 18
    coordinates: [  0.500000000000000,  0.131881820000000,  0.250000000000000 ]
    mass: 167.259000
    reduced_to: 18
  - symbol: Er # 19
    coordinates: [  0.500000000000000,  0.868118180000000,  0.750000000000000 ]
    mass: 167.259000
    reduced_to: 17
  - symbol: Er # 20
    coordinates: [  0.000000000000000,  0.631881820000000,  0.250000000000000 ]
    mass: 167.259000
    reduced_to: 18
  - symbol: Ta # 21
    coordinates: [  0.500000000000000,  0.398630510000000,  0.750000000000000 ]
    mass: 180.947880
    reduced_to: 21
  - symbol: Ta # 22
    coordinates: [  0.000000000000000,  0.101369490000000,  0.250000000000000 ]
    mass: 180.947880
    reduced_to: 22
  - symbol: Ta # 23
    coordinates: [  0.000000000000000,  0.898630510000000,  0.750000000000000 ]
    mass: 180.947880
    reduced_to: 21
  - symbol: Ta # 24
    coordinates: [  0.500000000000000,  0.601369490000000,  0.250000000000000 ]
    mass: 180.947880
    reduced_to: 22

supercell:
  lattice:
  - [    13.800245759999999,     0.000000000000000,    -0.005967540000000 ] # a
  - [     0.000000000000000,    10.809355200000001,     0.000000000000000 ] # b
  - [    -9.828822870000000,     0.000000000000000,    11.432770890000000 ] # c
  points:
  - symbol: O  # 1
    coordinates: [  0.372499945000000,  0.469651700000000,  0.073116440000000 ]
    mass: 15.999400
    reduced_to: 1
  - symbol: O  # 2
    coordinates: [  0.872499945000000,  0.469651700000000,  0.073116440000000 ]
    mass: 15.999400
    reduced_to: 1
  - symbol: O  # 3
    coordinates: [  0.372499945000000,  0.469651700000000,  0.406449773333333 ]
    mass: 15.999400
    reduced_to: 1
  - symbol: O  # 4
    coordinates: [  0.872499945000000,  0.469651700000000,  0.406449773333333 ]
    mass: 15.999400
    reduced_to: 1
  - symbol: O  # 5
    coordinates: [  0.372499945000000,  0.469651700000000,  0.739783106666667 ]
    mass: 15.999400
    reduced_to: 1
  - symbol: O  # 6
    coordinates: [  0.872499945000000,  0.469651700000000,  0.739783106666667 ]
    mass: 15.999400
    reduced_to: 1
  - symbol: O  # 7
    coordinates: [  0.127500055000000,  0.469651700000000,  0.093550226666667 ]
    mass: 15.999400
    reduced_to: 7
  - symbol: O  # 8
    coordinates: [  0.627500055000000,  0.469651700000000,  0.093550226666667 ]
    mass: 15.999400
    reduced_to: 7
  - symbol: O  # 9
    coordinates: [  0.127500055000000,  0.469651700000000,  0.426883560000000 ]
    mass: 15.999400
    reduced_to: 7
  - symbol: O  # 10
    coordinates: [  0.627500055000000,  0.469651700000000,  0.426883560000000 ]
    mass: 15.999400
    reduced_to: 7
  - symbol: O  # 11
    coordinates: [  0.127500055000000,  0.469651700000000,  0.760216893333333 ]
    mass: 15.999400
    reduced_to: 7
  - symbol: O  # 12
    coordinates: [  0.627500055000000,  0.469651700000000,  0.760216893333333 ]
    mass: 15.999400
    reduced_to: 7
  - symbol: O  # 13
    coordinates: [  0.377500055000000,  0.030348300000000,  0.260216893333333 ]
    mass: 15.999400
    reduced_to: 13
  - symbol: O  # 14
    coordinates: [  0.877500055000000,  0.030348300000000,  0.260216893333333 ]
    mass: 15.999400
    reduced_to: 13
  - symbol: O  # 15
    coordinates: [  0.377500055000000,  0.030348300000000,  0.593550226666667 ]
    mass: 15.999400
    reduced_to: 13
  - symbol: O  # 16
    coordinates: [  0.877500055000000,  0.030348300000000,  0.593550226666667 ]
    mass: 15.999400
    reduced_to: 13
  - symbol: O  # 17
    coordinates: [  0.377500055000000,  0.030348300000000,  0.926883560000000 ]
    mass: 15.999400
    reduced_to: 13
  - symbol: O  # 18
    coordinates: [  0.877500055000000,  0.030348300000000,  0.926883560000000 ]
    mass: 15.999400
    reduced_to: 13
  - symbol: O  # 19
    coordinates: [  0.122499945000000,  0.030348300000000,  0.239783106666667 ]
    mass: 15.999400
    reduced_to: 19
  - symbol: O  # 20
    coordinates: [  0.622499945000000,  0.030348300000000,  0.239783106666667 ]
    mass: 15.999400
    reduced_to: 19
  - symbol: O  # 21
    coordinates: [  0.122499945000000,  0.030348300000000,  0.573116440000000 ]
    mass: 15.999400
    reduced_to: 19
  - symbol: O  # 22
    coordinates: [  0.622499945000000,  0.030348300000000,  0.573116440000000 ]
    mass: 15.999400
    reduced_to: 19
  - symbol: O  # 23
    coordinates: [  0.122499945000000,  0.030348300000000,  0.906449773333333 ]
    mass: 15.999400
    reduced_to: 19
  - symbol: O  # 24
    coordinates: [  0.622499945000000,  0.030348300000000,  0.906449773333333 ]
    mass: 15.999400
    reduced_to: 19
  - symbol: O  # 25
    coordinates: [  0.170244075000000,  0.287867710000000,  0.280080463333333 ]
    mass: 15.999400
    reduced_to: 25
  - symbol: O  # 26
    coordinates: [  0.670244075000000,  0.287867710000000,  0.280080463333333 ]
    mass: 15.999400
    reduced_to: 25
  - symbol: O  # 27
    coordinates: [  0.170244075000000,  0.287867710000000,  0.613413796666667 ]
    mass: 15.999400
    reduced_to: 25
  - symbol: O  # 28
    coordinates: [  0.670244075000000,  0.287867710000000,  0.613413796666667 ]
    mass: 15.999400
    reduced_to: 25
  - symbol: O  # 29
    coordinates: [  0.170244075000000,  0.287867710000000,  0.946747130000000 ]
    mass: 15.999400
    reduced_to: 25
  - symbol: O  # 30
    coordinates: [  0.670244075000000,  0.287867710000000,  0.946747130000000 ]
    mass: 15.999400
    reduced_to: 25
  - symbol: O  # 31
    coordinates: [  0.329755925000000,  0.287867710000000,  0.219919536666667 ]
    mass: 15.999400
    reduced_to: 31
  - symbol: O  # 32
    coordinates: [  0.829755925000000,  0.287867710000000,  0.219919536666667 ]
    mass: 15.999400
    reduced_to: 31
  - symbol: O  # 33
    coordinates: [  0.329755925000000,  0.287867710000000,  0.553252870000000 ]
    mass: 15.999400
    reduced_to: 31
  - symbol: O  # 34
    coordinates: [  0.829755925000000,  0.287867710000000,  0.553252870000000 ]
    mass: 15.999400
    reduced_to: 31
  - symbol: O  # 35
    coordinates: [  0.329755925000000,  0.287867710000000,  0.886586203333333 ]
    mass: 15.999400
    reduced_to: 31
  - symbol: O  # 36
    coordinates: [  0.829755925000000,  0.287867710000000,  0.886586203333333 ]
    mass: 15.999400
    reduced_to: 31
  - symbol: O  # 37
    coordinates: [  0.079755925000000,  0.212132290000000,  0.053252870000000 ]
    mass: 15.999400
    reduced_to: 37
  - symbol: O  # 38
    coordinates: [  0.579755925000000,  0.212132290000000,  0.053252870000000 ]
    mass: 15.999400
    reduced_to: 37
  - symbol: O  # 39
    coordinates: [  0.079755925000000,  0.212132290000000,  0.386586203333333 ]
    mass: 15.999400
    reduced_to: 37
  - symbol: O  # 40
    coordinates: [  0.579755925000000,  0.212132290000000,  0.386586203333333 ]
    mass: 15.999400
    reduced_to: 37
  - symbol: O  # 41
    coordinates: [  0.079755925000000,  0.212132290000000,  0.719919536666667 ]
    mass: 15.999400
    reduced_to: 37
  - symbol: O  # 42
    coordinates: [  0.579755925000000,  0.212132290000000,  0.719919536666667 ]
    mass: 15.999400
    reduced_to: 37
  - symbol: O  # 43
    coordinates: [  0.420244075000000,  0.212132290000000,  0.113413796666667 ]
    mass: 15.999400
    reduced_to: 43
  - symbol: O  # 44
    coordinates: [  0.920244075000000,  0.212132290000000,  0.113413796666667 ]
    mass: 15.999400
    reduced_to: 43
  - symbol: O  # 45
    coordinates: [  0.420244075000000,  0.212132290000000,  0.446747130000000 ]
    mass: 15.999400
    reduced_to: 43
  - symbol: O  # 46
    coordinates: [  0.920244075000000,  0.212132290000000,  0.446747130000000 ]
    mass: 15.999400
    reduced_to: 43
  - symbol: O  # 47
    coordinates: [  0.420244075000000,  0.212132290000000,  0.780080463333333 ]
    mass: 15.999400
    reduced_to: 43
  - symbol: O  # 48
    coordinates: [  0.920244075000000,  0.212132290000000,  0.780080463333333 ]
    mass: 15.999400
    reduced_to: 43
  - symbol: O  # 49
    coordinates: [  0.122499945000000,  0.969651700000000,  0.073116440000000 ]
    mass: 15.999400
    reduced_to: 1
  - symbol: O  # 50
    coordinates: [  0.622499945000000,  0.969651700000000,  0.073116440000000 ]
    mass: 15.999400
    reduced_to: 1
  - symbol: O  # 51
    coordinates: [  0.122499945000000,  0.969651700000000,  0.406449773333333 ]
    mass: 15.999400
    reduced_to: 1
  - symbol: O  # 52
    coordinates: [  0.622499945000000,  0.969651700000000,  0.406449773333333 ]
    mass: 15.999400
    reduced_to: 1
  - symbol: O  # 53
    coordinates: [  0.122499945000000,  0.969651700000000,  0.739783106666667 ]
    mass: 15.999400
    reduced_to: 1
  - symbol: O  # 54
    coordinates: [  0.622499945000000,  0.969651700000000,  0.739783106666667 ]
    mass: 15.999400
    reduced_to: 1
  - symbol: O  # 55
    coordinates: [  0.377500055000000,  0.969651700000000,  0.093550226666667 ]
    mass: 15.999400
    reduced_to: 7
  - symbol: O  # 56
    coordinates: [  0.877500055000000,  0.969651700000000,  0.093550226666667 ]
    mass: 15.999400
    reduced_to: 7
  - symbol: O  # 57
    coordinates: [  0.377500055000000,  0.969651700000000,  0.426883560000000 ]
    mass: 15.999400
    reduced_to: 7
  - symbol: O  # 58
    coordinates: [  0.877500055000000,  0.969651700000000,  0.426883560000000 ]
    mass: 15.999400
    reduced_to: 7
  - symbol: O  # 59
    coordinates: [  0.377500055000000,  0.969651700000000,  0.760216893333333 ]
    mass: 15.999400
    reduced_to: 7
  - symbol: O  # 60
    coordinates: [  0.877500055000000,  0.969651700000000,  0.760216893333333 ]
    mass: 15.999400
    reduced_to: 7
  - symbol: O  # 61
    coordinates: [  0.127500055000000,  0.530348300000000,  0.260216893333333 ]
    mass: 15.999400
    reduced_to: 13
  - symbol: O  # 62
    coordinates: [  0.627500055000000,  0.530348300000000,  0.260216893333333 ]
    mass: 15.999400
    reduced_to: 13
  - symbol: O  # 63
    coordinates: [  0.127500055000000,  0.530348300000000,  0.593550226666667 ]
    mass: 15.999400
    reduced_to: 13
  - symbol: O  # 64
    coordinates: [  0.627500055000000,  0.530348300000000,  0.593550226666667 ]
    mass: 15.999400
    reduced_to: 13
  - symbol: O  # 65
    coordinates: [  0.127500055000000,  0.530348300000000,  0.926883560000000 ]
    mass: 15.999400
    reduced_to: 13
  - symbol: O  # 66
    coordinates: [  0.627500055000000,  0.530348300000000,  0.926883560000000 ]
    mass: 15.999400
    reduced_to: 13
  - symbol: O  # 67
    coordinates: [  0.372499945000000,  0.530348300000000,  0.239783106666667 ]
    mass: 15.999400
    reduced_to: 19
  - symbol: O  # 68
    coordinates: [  0.872499945000000,  0.530348300000000,  0.239783106666667 ]
    mass: 15.999400
    reduced_to: 19
  - symbol: O  # 69
    coordinates: [  0.372499945000000,  0.530348300000000,  0.573116440000000 ]
    mass: 15.999400
    reduced_to: 19
  - symbol: O  # 70
    coordinates: [  0.872499945000000,  0.530348300000000,  0.573116440000000 ]
    mass: 15.999400
    reduced_to: 19
  - symbol: O  # 71
    coordinates: [  0.372499945000000,  0.530348300000000,  0.906449773333333 ]
    mass: 15.999400
    reduced_to: 19
  - symbol: O  # 72
    coordinates: [  0.872499945000000,  0.530348300000000,  0.906449773333333 ]
    mass: 15.999400
    reduced_to: 19
  - symbol: O  # 73
    coordinates: [  0.420244075000000,  0.787867710000000,  0.280080463333333 ]
    mass: 15.999400
    reduced_to: 25
  - symbol: O  # 74
    coordinates: [  0.920244075000000,  0.787867710000000,  0.280080463333333 ]
    mass: 15.999400
    reduced_to: 25
  - symbol: O  # 75
    coordinates: [  0.420244075000000,  0.787867710000000,  0.613413796666667 ]
    mass: 15.999400
    reduced_to: 25
  - symbol: O  # 76
    coordinates: [  0.920244075000000,  0.787867710000000,  0.613413796666667 ]
    mass: 15.999400
    reduced_to: 25
  - symbol: O  # 77
    coordinates: [  0.420244075000000,  0.787867710000000,  0.946747130000000 ]
    mass: 15.999400
    reduced_to: 25
  - symbol: O  # 78
    coordinates: [  0.920244075000000,  0.787867710000000,  0.946747130000000 ]
    mass: 15.999400
    reduced_to: 25
  - symbol: O  # 79
    coordinates: [  0.079755925000000,  0.787867710000000,  0.219919536666667 ]
    mass: 15.999400
    reduced_to: 31
  - symbol: O  # 80
    coordinates: [  0.579755925000000,  0.787867710000000,  0.219919536666667 ]
    mass: 15.999400
    reduced_to: 31
  - symbol: O  # 81
    coordinates: [  0.079755925000000,  0.787867710000000,  0.553252870000000 ]
    mass: 15.999400
    reduced_to: 31
  - symbol: O  # 82
    coordinates: [  0.579755925000000,  0.787867710000000,  0.553252870000000 ]
    mass: 15.999400
    reduced_to: 31
  - symbol: O  # 83
    coordinates: [  0.079755925000000,  0.787867710000000,  0.886586203333333 ]
    mass: 15.999400
    reduced_to: 31
  - symbol: O  # 84
    coordinates: [  0.579755925000000,  0.787867710000000,  0.886586203333333 ]
    mass: 15.999400
    reduced_to: 31
  - symbol: O  # 85
    coordinates: [  0.329755925000000,  0.712132290000000,  0.053252870000000 ]
    mass: 15.999400
    reduced_to: 37
  - symbol: O  # 86
    coordinates: [  0.829755925000000,  0.712132290000000,  0.053252870000000 ]
    mass: 15.999400
    reduced_to: 37
  - symbol: O  # 87
    coordinates: [  0.329755925000000,  0.712132290000000,  0.386586203333333 ]
    mass: 15.999400
    reduced_to: 37
  - symbol: O  # 88
    coordinates: [  0.829755925000000,  0.712132290000000,  0.386586203333333 ]
    mass: 15.999400
    reduced_to: 37
  - symbol: O  # 89
    coordinates: [  0.329755925000000,  0.712132290000000,  0.719919536666667 ]
    mass: 15.999400
    reduced_to: 37
  - symbol: O  # 90
    coordinates: [  0.829755925000000,  0.712132290000000,  0.719919536666667 ]
    mass: 15.999400
    reduced_to: 37
  - symbol: O  # 91
    coordinates: [  0.170244075000000,  0.712132290000000,  0.113413796666667 ]
    mass: 15.999400
    reduced_to: 43
  - symbol: O  # 92
    coordinates: [  0.670244075000000,  0.712132290000000,  0.113413796666667 ]
    mass: 15.999400
    reduced_to: 43
  - symbol: O  # 93
    coordinates: [  0.170244075000000,  0.712132290000000,  0.446747130000000 ]
    mass: 15.999400
    reduced_to: 43
  - symbol: O  # 94
    coordinates: [  0.670244075000000,  0.712132290000000,  0.446747130000000 ]
    mass: 15.999400
    reduced_to: 43
  - symbol: O  # 95
    coordinates: [  0.170244075000000,  0.712132290000000,  0.780080463333333 ]
    mass: 15.999400
    reduced_to: 43
  - symbol: O  # 96
    coordinates: [  0.670244075000000,  0.712132290000000,  0.780080463333333 ]
    mass: 15.999400
    reduced_to: 43
  - symbol: Er # 97
    coordinates: [  0.000000000000000,  0.368118180000000,  0.250000000000000 ]
    mass: 167.259000
    reduced_to: 97
  - symbol: Er # 98
    coordinates: [  0.500000000000000,  0.368118180000000,  0.250000000000000 ]
    mass: 167.259000
    reduced_to: 97
  - symbol: Er # 99
    coordinates: [  0.000000000000000,  0.368118180000000,  0.583333333333333 ]
    mass: 167.259000
    reduced_to: 97
  - symbol: Er # 100
    coordinates: [  0.500000000000000,  0.368118180000000,  0.583333333333333 ]
    mass: 167.259000
    reduced_to: 97
  - symbol: Er # 101
    coordinates: [  0.000000000000000,  0.368118180000000,  0.916666666666667 ]
    mass: 167.259000
    reduced_to: 97
  - symbol: Er # 102
    coordinates: [  0.500000000000000,  0.368118180000000,  0.916666666666667 ]
    mass: 167.259000
    reduced_to: 97
  - symbol: Er # 103
    coordinates: [  0.250000000000000,  0.131881820000000,  0.083333333333333 ]
    mass: 167.259000
    reduced_to: 103
  - symbol: Er # 104
    coordinates: [  0.750000000000000,  0.131881820000000,  0.083333333333333 ]
    mass: 167.259000
    reduced_to: 103
  - symbol: Er # 105
    coordinates: [  0.250000000000000,  0.131881820000000,  0.416666666666667 ]
    mass: 167.259000
    reduced_to: 103
  - symbol: Er # 106
    coordinates: [  0.750000000000000,  0.131881820000000,  0.416666666666667 ]
    mass: 167.259000
    reduced_to: 103
  - symbol: Er # 107
    coordinates: [  0.250000000000000,  0.131881820000000,  0.750000000000000 ]
    mass: 167.259000
    reduced_to: 103
  - symbol: Er # 108
    coordinates: [  0.750000000000000,  0.131881820000000,  0.750000000000000 ]
    mass: 167.259000
    reduced_to: 103
  - symbol: Er # 109
    coordinates: [  0.250000000000000,  0.868118180000000,  0.250000000000000 ]
    mass: 167.259000
    reduced_to: 97
  - symbol: Er # 110
    coordinates: [  0.750000000000000,  0.868118180000000,  0.250000000000000 ]
    mass: 167.259000
    reduced_to: 97
  - symbol: Er # 111
    coordinates: [  0.250000000000000,  0.868118180000000,  0.583333333333333 ]
    mass: 167.259000
    reduced_to: 97
  - symbol: Er # 112
    coordinates: [  0.750000000000000,  0.868118180000000,  0.583333333333333 ]
    mass: 167.259000
    reduced_to: 97
  - symbol: Er # 113
    coordinates: [  0.250000000000000,  0.868118180000000,  0.916666666666667 ]
    mass: 167.259000
    reduced_to: 97
  - symbol: Er # 114
    coordinates: [  0.750000000000000,  0.868118180000000,  0.916666666666667 ]
    mass: 167.259000
    reduced_to: 97
  - symbol: Er # 115
    coordinates: [  0.000000000000000,  0.631881820000000,  0.083333333333333 ]
    mass: 167.259000
    reduced_to: 103
  - symbol: Er # 116
    coordinates: [  0.500000000000000,  0.631881820000000,  0.083333333333333 ]
    mass: 167.259000
    reduced_to: 103
  - symbol: Er # 117
    coordinates: [  0.000000000000000,  0.631881820000000,  0.416666666666667 ]
    mass: 167.259000
    reduced_to: 103
  - symbol: Er # 118
    coordinates: [  0.500000000000000,  0.631881820000000,  0.416666666666667 ]
    mass: 167.259000
    reduced_to: 103
  - symbol: Er # 119
    coordinates: [  0.000000000000000,  0.631881820000000,  0.750000000000000 ]
    mass: 167.259000
    reduced_to: 103
  - symbol: Er # 120
    coordinates: [  0.500000000000000,  0.631881820000000,  0.750000000000000 ]
    mass: 167.259000
    reduced_to: 103
  - symbol: Ta # 121
    coordinates: [  0.250000000000000,  0.398630510000000,  0.250000000000000 ]
    mass: 180.947880
    reduced_to: 121
  - symbol: Ta # 122
    coordinates: [  0.750000000000000,  0.398630510000000,  0.250000000000000 ]
    mass: 180.947880
    reduced_to: 121
  - symbol: Ta # 123
    coordinates: [  0.250000000000000,  0.398630510000000,  0.583333333333333 ]
    mass: 180.947880
    reduced_to: 121
  - symbol: Ta # 124
    coordinates: [  0.750000000000000,  0.398630510000000,  0.583333333333333 ]
    mass: 180.947880
    reduced_to: 121
  - symbol: Ta # 125
    coordinates: [  0.250000000000000,  0.398630510000000,  0.916666666666667 ]
    mass: 180.947880
    reduced_to: 121
  - symbol: Ta # 126
    coordinates: [  0.750000000000000,  0.398630510000000,  0.916666666666667 ]
    mass: 180.947880
    reduced_to: 121
  - symbol: Ta # 127
    coordinates: [  0.000000000000000,  0.101369490000000,  0.083333333333333 ]
    mass: 180.947880
    reduced_to: 127
  - symbol: Ta # 128
    coordinates: [  0.500000000000000,  0.101369490000000,  0.083333333333333 ]
    mass: 180.947880
    reduced_to: 127
  - symbol: Ta # 129
    coordinates: [  0.000000000000000,  0.101369490000000,  0.416666666666667 ]
    mass: 180.947880
    reduced_to: 127
  - symbol: Ta # 130
    coordinates: [  0.500000000000000,  0.101369490000000,  0.416666666666667 ]
    mass: 180.947880
    reduced_to: 127
  - symbol: Ta # 131
    coordinates: [  0.000000000000000,  0.101369490000000,  0.750000000000000 ]
    mass: 180.947880
    reduced_to: 127
  - symbol: Ta # 132
    coordinates: [  0.500000000000000,  0.101369490000000,  0.750000000000000 ]
    mass: 180.947880
    reduced_to: 127
  - symbol: Ta # 133
    coordinates: [  0.000000000000000,  0.898630510000000,  0.250000000000000 ]
    mass: 180.947880
    reduced_to: 121
  - symbol: Ta # 134
    coordinates: [  0.500000000000000,  0.898630510000000,  0.250000000000000 ]
    mass: 180.947880
    reduced_to: 121
  - symbol: Ta # 135
    coordinates: [  0.000000000000000,  0.898630510000000,  0.583333333333333 ]
    mass: 180.947880
    reduced_to: 121
  - symbol: Ta # 136
    coordinates: [  0.500000000000000,  0.898630510000000,  0.583333333333333 ]
    mass: 180.947880
    reduced_to: 121
  - symbol: Ta # 137
    coordinates: [  0.000000000000000,  0.898630510000000,  0.916666666666667 ]
    mass: 180.947880
    reduced_to: 121
  - symbol: Ta # 138
    coordinates: [  0.500000000000000,  0.898630510000000,  0.916666666666667 ]
    mass: 180.947880
    reduced_to: 121
  - symbol: Ta # 139
    coordinates: [  0.250000000000000,  0.601369490000000,  0.083333333333333 ]
    mass: 180.947880
    reduced_to: 127
  - symbol: Ta # 140
    coordinates: [  0.750000000000000,  0.601369490000000,  0.083333333333333 ]
    mass: 180.947880
    reduced_to: 127
  - symbol: Ta # 141
    coordinates: [  0.250000000000000,  0.601369490000000,  0.416666666666667 ]
    mass: 180.947880
    reduced_to: 127
  - symbol: Ta # 142
    coordinates: [  0.750000000000000,  0.601369490000000,  0.416666666666667 ]
    mass: 180.947880
    reduced_to: 127
  - symbol: Ta # 143
    coordinates: [  0.250000000000000,  0.601369490000000,  0.750000000000000 ]
    mass: 180.947880
    reduced_to: 127
  - symbol: Ta # 144
    coordinates: [  0.750000000000000,  0.601369490000000,  0.750000000000000 ]
    mass: 180.947880
    reduced_to: 127
