# epsilon and Z* of atoms 1 5 9 13
   3.34477341    0.00000000    0.00000000    0.00000000    3.55606509    0.00000000    0.00000000    0.00000000    3.29172056 
   2.58472433    0.00000000    0.05202985    0.00000000    2.85855841    0.00000000    0.05363402    0.00000000    2.40885986 
   0.27707324    0.00000000    0.02373862    0.00000000    0.55939971    0.00000000   -0.02560447    0.00000000    0.27019445 
  -1.19519716    0.00000000    0.08885756    0.00000000   -1.39768258    0.00000000    0.10856359    0.00000000   -1.22696749 
  -1.66660042    0.00000000    0.22389405    0.00000000   -2.02027554    0.00000000    0.28306046    0.00000000   -1.45208682 
