natom:   96
displacements:
- atom:    1
  displacement:
    [   0.0100000000000000,  0.0000000000000000,  0.0000000000000000 ]
- atom:    1
  displacement:
    [  -0.0100000000000000,  0.0000000000000000,  0.0000000000000000 ]
- atom:    1
  displacement:
    [   0.0000000000000000,  0.0100000000000000,  0.0000000000000000 ]
- atom:    1
  displacement:
    [   0.0000000000000000,  0.0000000000000000,  0.0100000000000000 ]
- atom:    1
  displacement:
    [   0.0000000000000000,  0.0000000000000000, -0.0100000000000000 ]
- atom:   25
  displacement:
    [   0.0100000000000000,  0.0000000000000000,  0.0000000000000000 ]
- atom:   25
  displacement:
    [  -0.0100000000000000,  0.0000000000000000,  0.0000000000000000 ]
- atom:   25
  displacement:
    [   0.0000000000000000,  0.0100000000000000,  0.0000000000000000 ]
- atom:   25
  displacement:
    [   0.0000000000000000,  0.0000000000000000,  0.0100000000000000 ]
- atom:   25
  displacement:
    [   0.0000000000000000,  0.0000000000000000, -0.0100000000000000 ]
- atom:   49
  displacement:
    [   0.0100000000000000,  0.0000000000000000,  0.0000000000000000 ]
- atom:   49
  displacement:
    [  -0.0100000000000000,  0.0000000000000000,  0.0000000000000000 ]
- atom:   49
  displacement:
    [   0.0000000000000000,  0.0100000000000000,  0.0000000000000000 ]
- atom:   49
  displacement:
    [   0.0000000000000000,  0.0000000000000000,  0.0100000000000000 ]
- atom:   49
  displacement:
    [   0.0000000000000000,  0.0000000000000000, -0.0100000000000000 ]
- atom:   73
  displacement:
    [   0.0100000000000000,  0.0000000000000000,  0.0000000000000000 ]
- atom:   73
  displacement:
    [  -0.0100000000000000,  0.0000000000000000,  0.0000000000000000 ]
- atom:   73
  displacement:
    [   0.0000000000000000,  0.0100000000000000,  0.0000000000000000 ]
- atom:   73
  displacement:
    [   0.0000000000000000,  0.0000000000000000,  0.0100000000000000 ]
- atom:   73
  displacement:
    [   0.0000000000000000,  0.0000000000000000, -0.0100000000000000 ]
lattice:
- [    14.9867988600000004,     0.0000000000000000,     0.0000000000000000 ] # a
- [     0.0000000000000000,    13.0297172699999990,     0.0000000000000000 ] # b
- [     0.0000000000000000,     0.0000000000000000,    10.4579772900000005 ] # c
atoms:
- symbol: Ba # 1
  position: [  0.1516883600000000,  0.0833333333333333,  0.4053893600000000 ]
  mass: 137.327000
- symbol: Ba # 2
  position: [  0.6516883600000000,  0.0833333333333333,  0.4053893600000000 ]
  mass: 137.327000
- symbol: Ba # 3
  position: [  0.1516883600000000,  0.4166666666666667,  0.4053893600000000 ]
  mass: 137.327000
- symbol: Ba # 4
  position: [  0.6516883600000000,  0.4166666666666667,  0.4053893600000000 ]
  mass: 137.327000
- symbol: Ba # 5
  position: [  0.1516883600000000,  0.7500000000000000,  0.4053893600000000 ]
  mass: 137.327000
- symbol: Ba # 6
  position: [  0.6516883600000000,  0.7500000000000000,  0.4053893600000000 ]
  mass: 137.327000
- symbol: Ba # 7
  position: [  0.4016883600000000,  0.0833333333333333,  0.0946106400000000 ]
  mass: 137.327000
- symbol: Ba # 8
  position: [  0.9016883600000001,  0.0833333333333333,  0.0946106400000000 ]
  mass: 137.327000
- symbol: Ba # 9
  position: [  0.4016883600000000,  0.4166666666666667,  0.0946106400000000 ]
  mass: 137.327000
- symbol: Ba # 10
  position: [  0.9016883600000001,  0.4166666666666667,  0.0946106400000000 ]
  mass: 137.327000
- symbol: Ba # 11
  position: [  0.4016883600000000,  0.7500000000000000,  0.0946106400000000 ]
  mass: 137.327000
- symbol: Ba # 12
  position: [  0.9016883600000001,  0.7500000000000000,  0.0946106400000000 ]
  mass: 137.327000
- symbol: Ba # 13
  position: [  0.3483116400000000,  0.2500000000000000,  0.5946106400000000 ]
  mass: 137.327000
- symbol: Ba # 14
  position: [  0.8483116399999999,  0.2500000000000000,  0.5946106400000000 ]
  mass: 137.327000
- symbol: Ba # 15
  position: [  0.3483116400000000,  0.5833333333333334,  0.5946106400000000 ]
  mass: 137.327000
- symbol: Ba # 16
  position: [  0.8483116399999999,  0.5833333333333334,  0.5946106400000000 ]
  mass: 137.327000
- symbol: Ba # 17
  position: [  0.3483116400000000,  0.9166666666666666,  0.5946106400000000 ]
  mass: 137.327000
- symbol: Ba # 18
  position: [  0.8483116399999999,  0.9166666666666666,  0.5946106400000000 ]
  mass: 137.327000
- symbol: Ba # 19
  position: [  0.0983116400000000,  0.2500000000000000,  0.9053893600000000 ]
  mass: 137.327000
- symbol: Ba # 20
  position: [  0.5983116400000000,  0.2500000000000000,  0.9053893600000000 ]
  mass: 137.327000
- symbol: Ba # 21
  position: [  0.0983116400000000,  0.5833333333333334,  0.9053893600000000 ]
  mass: 137.327000
- symbol: Ba # 22
  position: [  0.5983116400000000,  0.5833333333333334,  0.9053893600000000 ]
  mass: 137.327000
- symbol: Ba # 23
  position: [  0.0983116400000000,  0.9166666666666666,  0.9053893600000000 ]
  mass: 137.327000
- symbol: Ba # 24
  position: [  0.5983116400000000,  0.9166666666666666,  0.9053893600000000 ]
  mass: 137.327000
- symbol: H  # 25
  position: [  0.1227877650000000,  0.0833333333333333,  0.0960223900000000 ]
  mass: 1.007940
- symbol: H  # 26
  position: [  0.6227877650000000,  0.0833333333333333,  0.0960223900000000 ]
  mass: 1.007940
- symbol: H  # 27
  position: [  0.1227877650000000,  0.4166666666666667,  0.0960223900000000 ]
  mass: 1.007940
- symbol: H  # 28
  position: [  0.6227877650000000,  0.4166666666666667,  0.0960223900000000 ]
  mass: 1.007940
- symbol: H  # 29
  position: [  0.1227877650000000,  0.7500000000000000,  0.0960223900000000 ]
  mass: 1.007940
- symbol: H  # 30
  position: [  0.6227877650000000,  0.7500000000000000,  0.0960223900000000 ]
  mass: 1.007940
- symbol: H  # 31
  position: [  0.3727877650000000,  0.0833333333333333,  0.4039776100000000 ]
  mass: 1.007940
- symbol: H  # 32
  position: [  0.8727877650000000,  0.0833333333333333,  0.4039776100000000 ]
  mass: 1.007940
- symbol: H  # 33
  position: [  0.3727877650000000,  0.4166666666666667,  0.4039776100000000 ]
  mass: 1.007940
- symbol: H  # 34
  position: [  0.8727877650000000,  0.4166666666666667,  0.4039776100000000 ]
  mass: 1.007940
- symbol: H  # 35
  position: [  0.3727877650000000,  0.7500000000000000,  0.4039776100000000 ]
  mass: 1.007940
- symbol: H  # 36
  position: [  0.8727877650000000,  0.7500000000000000,  0.4039776100000000 ]
  mass: 1.007940
- symbol: H  # 37
  position: [  0.3772122350000000,  0.2500000000000000,  0.9039776100000000 ]
  mass: 1.007940
- symbol: H  # 38
  position: [  0.8772122350000000,  0.2500000000000000,  0.9039776100000000 ]
  mass: 1.007940
- symbol: H  # 39
  position: [  0.3772122350000000,  0.5833333333333334,  0.9039776100000000 ]
  mass: 1.007940
- symbol: H  # 40
  position: [  0.8772122350000000,  0.5833333333333334,  0.9039776100000000 ]
  mass: 1.007940
- symbol: H  # 41
  position: [  0.3772122350000000,  0.9166666666666666,  0.9039776100000000 ]
  mass: 1.007940
- symbol: H  # 42
  position: [  0.8772122350000000,  0.9166666666666666,  0.9039776100000000 ]
  mass: 1.007940
- symbol: H  # 43
  position: [  0.1272122350000000,  0.2500000000000000,  0.5960223900000000 ]
  mass: 1.007940
- symbol: H  # 44
  position: [  0.6272122350000000,  0.2500000000000000,  0.5960223900000000 ]
  mass: 1.007940
- symbol: H  # 45
  position: [  0.1272122350000000,  0.5833333333333334,  0.5960223900000000 ]
  mass: 1.007940
- symbol: H  # 46
  position: [  0.6272122350000000,  0.5833333333333334,  0.5960223900000000 ]
  mass: 1.007940
- symbol: H  # 47
  position: [  0.1272122350000000,  0.9166666666666666,  0.5960223900000000 ]
  mass: 1.007940
- symbol: H  # 48
  position: [  0.6272122350000000,  0.9166666666666666,  0.5960223900000000 ]
  mass: 1.007940
- symbol: Br # 49
  position: [  0.2315061600000000,  0.2500000000000000,  0.1749408400000000 ]
  mass: 79.904000
- symbol: Br # 50
  position: [  0.7315061600000000,  0.2500000000000000,  0.1749408400000000 ]
  mass: 79.904000
- symbol: Br # 51
  position: [  0.2315061600000000,  0.5833333333333334,  0.1749408400000000 ]
  mass: 79.904000
- symbol: Br # 52
  position: [  0.7315061600000000,  0.5833333333333334,  0.1749408400000000 ]
  mass: 79.904000
- symbol: Br # 53
  position: [  0.2315061600000000,  0.9166666666666666,  0.1749408400000000 ]
  mass: 79.904000
- symbol: Br # 54
  position: [  0.7315061600000000,  0.9166666666666666,  0.1749408400000000 ]
  mass: 79.904000
- symbol: Br # 55
  position: [  0.4815061600000000,  0.2500000000000000,  0.3250591600000000 ]
  mass: 79.904000
- symbol: Br # 56
  position: [  0.9815061600000000,  0.2500000000000000,  0.3250591600000000 ]
  mass: 79.904000
- symbol: Br # 57
  position: [  0.4815061600000000,  0.5833333333333334,  0.3250591600000000 ]
  mass: 79.904000
- symbol: Br # 58
  position: [  0.9815061600000000,  0.5833333333333334,  0.3250591600000000 ]
  mass: 79.904000
- symbol: Br # 59
  position: [  0.4815061600000000,  0.9166666666666666,  0.3250591600000000 ]
  mass: 79.904000
- symbol: Br # 60
  position: [  0.9815061600000000,  0.9166666666666666,  0.3250591600000000 ]
  mass: 79.904000
- symbol: Br # 61
  position: [  0.2684938400000000,  0.0833333333333333,  0.8250591600000000 ]
  mass: 79.904000
- symbol: Br # 62
  position: [  0.7684938400000000,  0.0833333333333333,  0.8250591600000000 ]
  mass: 79.904000
- symbol: Br # 63
  position: [  0.2684938400000000,  0.4166666666666667,  0.8250591600000000 ]
  mass: 79.904000
- symbol: Br # 64
  position: [  0.7684938400000000,  0.4166666666666667,  0.8250591600000000 ]
  mass: 79.904000
- symbol: Br # 65
  position: [  0.2684938400000000,  0.7500000000000000,  0.8250591600000000 ]
  mass: 79.904000
- symbol: Br # 66
  position: [  0.7684938400000000,  0.7500000000000000,  0.8250591600000000 ]
  mass: 79.904000
- symbol: Br # 67
  position: [  0.0184938400000000,  0.0833333333333333,  0.6749408400000000 ]
  mass: 79.904000
- symbol: Br # 68
  position: [  0.5184938400000000,  0.0833333333333333,  0.6749408400000000 ]
  mass: 79.904000
- symbol: Br # 69
  position: [  0.0184938400000000,  0.4166666666666667,  0.6749408400000000 ]
  mass: 79.904000
- symbol: Br # 70
  position: [  0.5184938400000000,  0.4166666666666667,  0.6749408400000000 ]
  mass: 79.904000
- symbol: Br # 71
  position: [  0.0184938400000000,  0.7500000000000000,  0.6749408400000000 ]
  mass: 79.904000
- symbol: Br # 72
  position: [  0.5184938400000000,  0.7500000000000000,  0.6749408400000000 ]
  mass: 79.904000
- symbol: O  # 73
  position: [  0.0708818750000000,  0.0833333333333333,  0.0392364600000000 ]
  mass: 15.999400
- symbol: O  # 74
  position: [  0.5708818750000000,  0.0833333333333333,  0.0392364600000000 ]
  mass: 15.999400
- symbol: O  # 75
  position: [  0.0708818750000000,  0.4166666666666667,  0.0392364600000000 ]
  mass: 15.999400
- symbol: O  # 76
  position: [  0.5708818750000000,  0.4166666666666667,  0.0392364600000000 ]
  mass: 15.999400
- symbol: O  # 77
  position: [  0.0708818750000000,  0.7500000000000000,  0.0392364600000000 ]
  mass: 15.999400
- symbol: O  # 78
  position: [  0.5708818750000000,  0.7500000000000000,  0.0392364600000000 ]
  mass: 15.999400
- symbol: O  # 79
  position: [  0.3208818750000000,  0.0833333333333333,  0.4607635400000000 ]
  mass: 15.999400
- symbol: O  # 80
  position: [  0.8208818750000000,  0.0833333333333333,  0.4607635400000000 ]
  mass: 15.999400
- symbol: O  # 81
  position: [  0.3208818750000000,  0.4166666666666667,  0.4607635400000000 ]
  mass: 15.999400
- symbol: O  # 82
  position: [  0.8208818750000000,  0.4166666666666667,  0.4607635400000000 ]
  mass: 15.999400
- symbol: O  # 83
  position: [  0.3208818750000000,  0.7500000000000000,  0.4607635400000000 ]
  mass: 15.999400
- symbol: O  # 84
  position: [  0.8208818750000000,  0.7500000000000000,  0.4607635400000000 ]
  mass: 15.999400
- symbol: O  # 85
  position: [  0.4291181250000000,  0.2500000000000000,  0.9607635400000000 ]
  mass: 15.999400
- symbol: O  # 86
  position: [  0.9291181250000000,  0.2500000000000000,  0.9607635400000000 ]
  mass: 15.999400
- symbol: O  # 87
  position: [  0.4291181250000000,  0.5833333333333334,  0.9607635400000000 ]
  mass: 15.999400
- symbol: O  # 88
  position: [  0.9291181250000000,  0.5833333333333334,  0.9607635400000000 ]
  mass: 15.999400
- symbol: O  # 89
  position: [  0.4291181250000000,  0.9166666666666666,  0.9607635400000000 ]
  mass: 15.999400
- symbol: O  # 90
  position: [  0.9291181250000000,  0.9166666666666666,  0.9607635400000000 ]
  mass: 15.999400
- symbol: O  # 91
  position: [  0.1791181250000000,  0.2500000000000000,  0.5392364600000000 ]
  mass: 15.999400
- symbol: O  # 92
  position: [  0.6791181250000000,  0.2500000000000000,  0.5392364600000000 ]
  mass: 15.999400
- symbol: O  # 93
  position: [  0.1791181250000000,  0.5833333333333334,  0.5392364600000000 ]
  mass: 15.999400
- symbol: O  # 94
  position: [  0.6791181250000000,  0.5833333333333334,  0.5392364600000000 ]
  mass: 15.999400
- symbol: O  # 95
  position: [  0.1791181250000000,  0.9166666666666666,  0.5392364600000000 ]
  mass: 15.999400
- symbol: O  # 96
  position: [  0.6791181250000000,  0.9166666666666666,  0.5392364600000000 ]
  mass: 15.999400