  96   96
1 1
     5.851632500000000    -0.000000000000000     0.994635000000000
     0.000000000000000     7.104916000000001    -0.000000000000000
     0.994291000000000    -0.000000000000000     4.617184500000000
1 2
    -0.289176000000000    -0.000000000000000    -0.012585500000000
    -0.000000000000000     0.096689000000000    -0.000000000000000
    -0.012661000000000    -0.000000000000000     0.037040000000000
1 3
     0.356099000000000    -0.020365000000000     0.039544000000000
     0.020412000000000    -1.211176000000000     0.095676500000000
     0.039640000000000    -0.095780000000000     0.336886500000000
1 4
    -0.179320000000000    -0.013062500000000    -0.011534500000000
     0.013152500000000    -0.048448000000000     0.001874000000000
    -0.011687500000000    -0.001925000000000     0.020952500000000
1 5
     0.356099000000000     0.020365000000000     0.039544000000000
    -0.020412000000000    -1.211176000000000    -0.095676500000000
     0.039640000000000     0.095780000000000     0.336886500000000
1 6
    -0.179320000000000     0.013062500000000    -0.011534500000000
    -0.013152500000000    -0.048448000000000    -0.001874000000000
    -0.011687500000000     0.001925000000000     0.020952500000000
1 7
    -0.222547000000000    -0.000000000000000     0.273921500000000
    -0.000000000000000     0.304128000000000    -0.000000000000000
     0.247020500000000    -0.000000000000000    -0.159521500000000
1 8
    -0.222548000000000    -0.000000000000000    -0.247002500000000
    -0.000000000000000     0.304074000000000    -0.000000000000000
    -0.273958000000000    -0.000000000000000    -0.159402500000000
1 9
    -0.041592500000000    -0.076254500000000     0.041672000000000
    -0.136235500000000    -0.150063000000000     0.040273000000000
     0.120782000000000     0.081433000000000    -0.047405500000000
1 10
    -0.041549500000000     0.136283500000000    -0.120824000000000
     0.076223000000000    -0.150051500000000     0.081594000000000
    -0.041669500000000     0.040297500000000    -0.047387000000000
1 11
    -0.041592500000000     0.076254500000000     0.041672000000000
     0.136235500000000    -0.150063000000000    -0.040273000000000
     0.120782000000000    -0.081433000000000    -0.047405500000000
1 12
    -0.041549500000000    -0.136283500000000    -0.120824000000000
    -0.076223000000000    -0.150051500000000    -0.081594000000000
    -0.041669500000000    -0.040297500000000    -0.047387000000000
1 13
    -0.358949500000000    -0.842532500000000    -0.571940500000000
    -0.842427500000000    -0.035287500000000    -0.364541500000000
    -0.571826500000000    -0.364493000000000    -0.128030000000000
1 14
    -0.253357000000000     0.136547500000000     0.112589500000000
     0.136657000000000     0.072735500000000    -0.110542500000000
     0.112601000000000    -0.110570500000000     0.118121000000000
1 15
     0.028992000000000    -0.000000000000000    -0.017685000000000
    -0.000000000000000    -0.259881000000000     0.000000000000000
    -0.017600000000000    -0.000000000000000    -0.009000000000000
1 16
    -0.049236000000000    -0.000000000000000     0.030396000000000
     0.000000000000000    -0.150313000000000    -0.000000000000000
     0.030447000000000    -0.000000000000000     0.028094500000000
1 17
    -0.358949500000000     0.842532500000000    -0.571940500000000
     0.842427500000000    -0.035287500000000     0.364541500000000
    -0.571826500000000     0.364493000000000    -0.128030000000000
1 18
    -0.253357000000000    -0.136547500000000     0.112589500000000
    -0.136657000000000     0.072735500000000     0.110542500000000
     0.112601000000000     0.110570500000000     0.118121000000000
1 19
     0.274261500000000     0.134092000000000     0.046537000000000
     0.134136500000000     0.112948500000000     0.012138000000000
    -0.046448000000000    -0.012082500000000    -0.423749000000000
1 20
    -0.148626000000000    -0.019199500000000    -0.013930000000000
    -0.019178500000000     0.038091500000000     0.013516500000000
     0.013926000000000    -0.013486000000000    -0.041574500000000
1 21
     0.128874000000000    -0.000000000000000     0.001154000000000
     0.000000000000000    -0.228606000000000     0.000000000000000
    -0.001237000000000    -0.000000000000000    -0.079782000000000
1 22
    -0.098575000000000    -0.000000000000000    -0.010801000000000
     0.000000000000000    -0.076409000000000     0.000000000000000
     0.010886000000000    -0.000000000000000    -0.026924000000000
1 23
     0.274261500000000    -0.134092000000000     0.046537000000000
    -0.134136500000000     0.112948500000000    -0.012138000000000
    -0.046448000000000     0.012082500000000    -0.423749000000000
1 24
    -0.148626000000000     0.019199500000000    -0.013930000000000
     0.019178500000000     0.038091500000000    -0.013516500000000
     0.013926000000000     0.013486000000000    -0.041574500000000
1 25
     0.190176000000000    -0.000000000000000    -0.095811500000000
     0.000000000000000     0.227543000000000     0.000000000000000
     0.104717000000000    -0.000000000000000    -0.389469500000000
1 26
    -0.025255500000000    -0.000000000000000     0.001999500000000
     0.000000000000000     0.023712000000000     0.000000000000000
    -0.006749000000000    -0.000000000000000     0.003342500000000
1 27
     0.052161000000000    -0.024367000000000    -0.005079000000000
     0.003929000000000    -0.081396000000000     0.019042500000000
    -0.028833500000000     0.065273500000000    -0.013640000000000
1 28
    -0.021504500000000     0.001880000000000     0.002028500000000
     0.001025500000000    -0.011983000000000    -0.003176000000000
    -0.004801500000000     0.002774000000000     0.002856000000000
1 29
     0.052161000000000     0.024367000000000    -0.005079000000000
    -0.003929000000000    -0.081396000000000    -0.019042500000000
    -0.028833500000000    -0.065273500000000    -0.013640000000000
1 30
    -0.021504500000000    -0.001880000000000     0.002028500000000
    -0.001025500000000    -0.011983000000000     0.003176000000000
    -0.004801500000000    -0.002774000000000     0.002856000000000
1 31
    -0.409201500000000    -0.000000000000000    -0.197732000000000
     0.000000000000000    -0.022050000000000    -0.000000000000000
     0.095572000000000    -0.000000000000000    -0.014107500000000
1 32
    -0.105275000000000    -0.000000000000000    -0.023631500000000
    -0.000000000000000     0.139939000000000     0.000000000000000
    -0.009687500000000    -0.000000000000000     0.043958500000000
1 33
    -0.015172500000000    -0.027268000000000    -0.005193000000000
    -0.018209500000000    -0.013844500000000     0.005220000000000
     0.012402500000000     0.013460000000000     0.015243500000000
1 34
    -0.033054000000000     0.072348000000000     0.021070500000000
     0.023012500000000    -0.074240000000000    -0.005157000000000
    -0.014498500000000     0.037936000000000     0.011295000000000
1 35
    -0.015172500000000     0.027268000000000    -0.005193000000000
     0.018209500000000    -0.013844500000000    -0.005220000000000
     0.012402500000000    -0.013460000000000     0.015243500000000
1 36
    -0.033054000000000    -0.072348000000000     0.021070500000000
    -0.023012500000000    -0.074240000000000     0.005157000000000
    -0.014498500000000    -0.037936000000000     0.011295000000000
1 37
     0.006168000000000    -0.011418000000000    -0.006686500000000
    -0.008934500000000     0.020394000000000     0.023873500000000
    -0.000527000000000    -0.024053000000000    -0.035026000000000
1 38
    -0.028421500000000     0.013372500000000     0.014775000000000
     0.004033000000000     0.010401500000000    -0.003130500000000
     0.016362000000000    -0.017607500000000    -0.012737000000000
1 39
     0.000884500000000    -0.000000000000000    -0.003311000000000
    -0.000000000000000    -0.039138000000000    -0.000000000000000
    -0.005106500000000    -0.000000000000000    -0.003948500000000
1 40
    -0.009135500000000    -0.000000000000000     0.000317000000000
    -0.000000000000000    -0.019238000000000    -0.000000000000000
     0.003111000000000    -0.000000000000000    -0.005720000000000
1 41
     0.006168000000000     0.011418000000000    -0.006686500000000
     0.008934500000000     0.020394000000000    -0.023873500000000
    -0.000527000000000     0.024053000000000    -0.035026000000000
1 42
    -0.028421500000000    -0.013372500000000     0.014775000000000
    -0.004033000000000     0.010401500000000     0.003130500000000
     0.016362000000000     0.017607500000000    -0.012737000000000
1 43
     0.081257000000000     0.225076500000000     0.191135500000000
     0.082166500000000    -0.247785500000000    -0.340785000000000
     0.055948500000000    -0.445182500000000    -0.268815000000000
1 44
    -0.020392500000000    -0.010542000000000    -0.001226500000000
    -0.002546500000000     0.008885000000000    -0.006217000000000
    -0.005788000000000    -0.006267000000000    -0.000721500000000
1 45
     0.018640000000000    -0.000000000000000    -0.000016500000000
     0.000000000000000    -0.051068000000000    -0.000000000000000
    -0.005816000000000    -0.000000000000000     0.004598500000000
1 46
    -0.014380000000000    -0.000000000000000     0.002082500000000
    -0.000000000000000    -0.017775000000000     0.000000000000000
    -0.002903000000000    -0.000000000000000     0.001168000000000
1 47
     0.081257000000000    -0.225076500000000     0.191135500000000
    -0.082166500000000    -0.247785500000000     0.340785000000000
     0.055948500000000     0.445182500000000    -0.268815000000000
1 48
    -0.020392500000000     0.010542000000000    -0.001226500000000
     0.002546500000000     0.008885000000000     0.006217000000000
    -0.005788000000000     0.006267000000000    -0.000721500000000
1 49
    -0.287157000000000    -0.089214500000000     0.120462000000000
    -0.018604500000000    -0.233117500000000     0.004681000000000
     0.083539000000000     0.064651500000000    -0.214364000000000
1 50
     0.098889000000000    -0.011072000000000     0.006299000000000
    -0.033334000000000    -0.020109500000000    -0.015216000000000
     0.022192000000000    -0.004566000000000     0.001811000000000
1 51
    -0.041923500000000    -0.000000000000000    -0.000956000000000
    -0.000000000000000     0.177915000000000     0.000000000000000
     0.014508500000000    -0.000000000000000    -0.027912500000000
1 52
     0.050773000000000    -0.000000000000000    -0.003142500000000
    -0.000000000000000     0.039748000000000     0.000000000000000
     0.005558500000000    -0.000000000000000    -0.002103000000000
1 53
    -0.287157000000000     0.089214500000000     0.120462000000000
     0.018604500000000    -0.233117500000000    -0.004681000000000
     0.083539000000000    -0.064651500000000    -0.214364000000000
1 54
     0.098889000000000     0.011072000000000     0.006299000000000
     0.033334000000000    -0.020109500000000     0.015216000000000
     0.022192000000000     0.004566000000000     0.001811000000000
1 55
     0.142421500000000     0.103345000000000    -0.039997500000000
     0.051471000000000    -0.035141500000000    -0.010039000000000
    -0.005585000000000     0.017774000000000    -0.056726000000000
1 56
    -0.303341000000000     0.061983500000000    -0.030847500000000
     0.080210500000000    -0.302860500000000     0.014347500000000
    -0.016904500000000    -0.010297000000000    -0.137261500000000
1 57
     0.035070500000000    -0.000000000000000     0.000979500000000
    -0.000000000000000     0.064641000000000     0.000000000000000
    -0.001346000000000    -0.000000000000000    -0.019951500000000
1 58
    -0.039968000000000    -0.000000000000000    -0.009984500000000
     0.000000000000000     0.156237000000000    -0.000000000000000
    -0.017923000000000    -0.000000000000000    -0.019246500000000
1 59
     0.142421500000000    -0.103345000000000    -0.039997500000000
    -0.051471000000000    -0.035141500000000     0.010039000000000
    -0.005585000000000    -0.017774000000000    -0.056726000000000
1 60
    -0.303341000000000    -0.061983500000000    -0.030847500000000
    -0.080210500000000    -0.302860500000000    -0.014347500000000
    -0.016904500000000     0.010297000000000    -0.137261500000000
1 61
    -0.093578000000000    -0.000000000000000     0.100864500000000
     0.000000000000000    -0.178250000000000     0.000000000000000
     0.047677000000000    -0.000000000000000     0.241775000000000
1 62
     0.096734000000000    -0.000000000000000    -0.014027000000000
     0.000000000000000    -0.039889000000000    -0.000000000000000
    -0.032265000000000    -0.000000000000000     0.039555000000000
1 63
    -0.062314000000000     0.041405500000000     0.034624500000000
     0.026296000000000     0.086996500000000     0.020113500000000
    -0.003231000000000     0.019876500000000     0.070788000000000
1 64
     0.052889500000000    -0.016081000000000    -0.005982000000000
    -0.014017000000000     0.020221500000000     0.000101500000000
    -0.002355500000000     0.003386500000000     0.014093000000000
1 65
    -0.062314000000000    -0.041405500000000     0.034624500000000
    -0.026296000000000     0.086996500000000    -0.020113500000000
    -0.003231000000000    -0.019876500000000     0.070788000000000
1 66
     0.052889500000000     0.016081000000000    -0.005982000000000
     0.014017000000000     0.020221500000000    -0.000101500000000
    -0.002355500000000    -0.003386500000000     0.014093000000000
1 67
    -0.240938500000000    -0.000000000000000     0.043581000000000
     0.000000000000000    -0.321298000000000     0.000000000000000
     0.115860500000000    -0.000000000000000    -0.326165500000000
1 68
     0.129508500000000    -0.000000000000000     0.064022000000000
    -0.000000000000000    -0.083139000000000    -0.000000000000000
     0.045461500000000    -0.000000000000000     0.018309000000000
1 69
    -0.054037500000000    -0.034378500000000    -0.018499500000000
    -0.076375000000000     0.128846000000000     0.069906000000000
    -0.027530500000000     0.061757000000000     0.019192500000000
1 70
     0.065943000000000     0.036341500000000     0.015359500000000
     0.033584000000000     0.043348500000000     0.014670500000000
     0.022502000000000     0.021888000000000     0.011019500000000
1 71
    -0.054037500000000     0.034378500000000    -0.018499500000000
     0.076375000000000     0.128846000000000    -0.069906000000000
    -0.027530500000000    -0.061757000000000     0.019192500000000
1 72
     0.065943000000000    -0.036341500000000     0.015359500000000
    -0.033584000000000     0.043348500000000    -0.014670500000000
     0.022502000000000    -0.021888000000000     0.011019500000000
1 73
    -0.204997500000000    -0.000000000000000     0.229558500000000
    -0.000000000000000    -0.307317000000000     0.000000000000000
     0.055633000000000    -0.000000000000000     0.505426000000000
1 74
     0.120419000000000    -0.000000000000000    -0.027196000000000
     0.000000000000000    -0.051804000000000    -0.000000000000000
    -0.042042000000000    -0.000000000000000     0.016950500000000
1 75
    -0.116760500000000    -0.026455000000000     0.031312000000000
    -0.029443500000000     0.135652000000000    -0.073306000000000
     0.041778500000000    -0.053438000000000     0.070233000000000
1 76
     0.069052000000000     0.011534500000000    -0.016019000000000
     0.031082500000000     0.025752500000000    -0.013338000000000
    -0.028772500000000     0.002404500000000     0.011024500000000
1 77
    -0.116760500000000     0.026455000000000     0.031312000000000
     0.029443500000000     0.135652000000000     0.073306000000000
     0.041778500000000     0.053438000000000     0.070233000000000
1 78
     0.069052000000000    -0.011534500000000    -0.016019000000000
    -0.031082500000000     0.025752500000000     0.013338000000000
    -0.028772500000000    -0.002404500000000     0.011024500000000
1 79
    -2.291461500000000    -0.000000000000000     0.072619000000000
    -0.000000000000000    -0.675278000000000     0.000000000000000
    -0.492046500000000    -0.000000000000000    -0.508510500000000
1 80
     0.231168500000000    -0.000000000000000    -0.010138500000000
     0.000000000000000    -0.174313000000000     0.000000000000000
    -0.022422500000000    -0.000000000000000    -0.093165000000000
1 81
    -0.070069000000000     0.156317500000000    -0.030585500000000
     0.166573500000000     0.195608000000000     0.041044500000000
     0.013823000000000     0.054944000000000    -0.093320500000000
1 82
     0.118425500000000    -0.096525000000000    -0.023587000000000
    -0.061111000000000     0.091193500000000     0.033988000000000
     0.024582000000000    -0.014117500000000    -0.051618500000000
1 83
    -0.070069000000000    -0.156317500000000    -0.030585500000000
    -0.166573500000000     0.195608000000000    -0.041044500000000
     0.013823000000000    -0.054944000000000    -0.093320500000000
1 84
     0.118425500000000     0.096525000000000    -0.023587000000000
     0.061111000000000     0.091193500000000    -0.033988000000000
     0.024582000000000     0.014117500000000    -0.051618500000000
1 85
     0.048154000000000     0.052668000000000    -0.018470000000000
     0.069090500000000    -0.059760500000000    -0.030970000000000
    -0.042525500000000     0.008942500000000     0.092062500000000
1 86
    -0.002947000000000    -0.073452000000000     0.019873000000000
    -0.053764500000000    -0.065349500000000    -0.012654500000000
     0.007110500000000     0.003068000000000     0.095988500000000
1 87
     0.031160000000000    -0.000000000000000    -0.011607000000000
     0.000000000000000     0.118972000000000    -0.000000000000000
    -0.002069500000000    -0.000000000000000     0.042470500000000
1 88
    -0.041317500000000    -0.000000000000000     0.036876500000000
    -0.000000000000000     0.128383000000000     0.000000000000000
    -0.001442000000000    -0.000000000000000     0.034534000000000
1 89
     0.048154000000000    -0.052668000000000    -0.018470000000000
    -0.069090500000000    -0.059760500000000     0.030970000000000
    -0.042525500000000    -0.008942500000000     0.092062500000000
1 90
    -0.002947000000000     0.073452000000000     0.019873000000000
     0.053764500000000    -0.065349500000000     0.012654500000000
     0.007110500000000    -0.003068000000000     0.095988500000000
1 91
    -0.723618000000000    -0.458901500000000    -0.379019000000000
    -0.089870000000000    -1.532760500000000    -0.938739000000000
    -0.132337000000000    -0.852078000000000    -1.187043500000000
1 92
     0.140851000000000     0.002751500000000     0.021902000000000
    -0.017010000000000    -0.028065000000000    -0.002042000000000
    -0.014518000000000     0.007075000000000    -0.017067500000000
1 93
    -0.076900500000000    -0.000000000000000    -0.014167500000000
    -0.000000000000000     0.373004000000000     0.000000000000000
     0.001799000000000    -0.000000000000000    -0.010140000000000
1 94
     0.073608500000000    -0.000000000000000     0.007266500000000
    -0.000000000000000     0.056595000000000     0.000000000000000
     0.000029500000000    -0.000000000000000    -0.009497000000000
1 95
    -0.723618000000000     0.458901500000000    -0.379019000000000
     0.089870000000000    -1.532760500000000     0.938739000000000
    -0.132337000000000     0.852078000000000    -1.187043500000000
1 96
     0.140851000000000    -0.002751500000000     0.021902000000000
     0.017010000000000    -0.028065000000000     0.002042000000000
    -0.014518000000000    -0.007075000000000    -0.017067500000000
2 1
    -0.289176000000000     0.000000000000000    -0.012585500000000
    -0.000000000000000     0.096689000000000    -0.000000000000000
    -0.012661000000000     0.000000000000000     0.037040000000000
2 2
     5.851632500000000     0.000000000000000     0.994635000000000
     0.000000000000000     7.104916000000001    -0.000000000000000
     0.994291000000000     0.000000000000000     4.617184500000000
2 3
    -0.179320000000000    -0.013062500000000    -0.011534500000000
     0.013152500000000    -0.048448000000000     0.001874000000000
    -0.011687500000000    -0.001925000000000     0.020952500000000
2 4
     0.356099000000000    -0.020365000000000     0.039544000000000
     0.020412000000000    -1.211176000000000     0.095676500000000
     0.039640000000000    -0.095780000000000     0.336886500000000
2 5
    -0.179320000000000     0.013062500000000    -0.011534500000000
    -0.013152500000000    -0.048448000000000    -0.001874000000000
    -0.011687500000000     0.001925000000000     0.020952500000000
2 6
     0.356099000000000     0.020365000000000     0.039544000000000
    -0.020412000000000    -1.211176000000000    -0.095676500000000
     0.039640000000000     0.095780000000000     0.336886500000000
2 7
    -0.222548000000000     0.000000000000000    -0.247002500000000
    -0.000000000000000     0.304074000000000    -0.000000000000000
    -0.273958000000000     0.000000000000000    -0.159402500000000
2 8
    -0.222547000000000     0.000000000000000     0.273921500000000
    -0.000000000000000     0.304128000000000    -0.000000000000000
     0.247020500000000     0.000000000000000    -0.159521500000000
2 9
    -0.041549500000000     0.136283500000000    -0.120824000000000
     0.076223000000000    -0.150051500000000     0.081594000000000
    -0.041669500000000     0.040297500000000    -0.047387000000000
2 10
    -0.041592500000000    -0.076254500000000     0.041672000000000
    -0.136235500000000    -0.150063000000000     0.040273000000000
     0.120782000000000     0.081433000000000    -0.047405500000000
2 11
    -0.041549500000000    -0.136283500000000    -0.120824000000000
    -0.076223000000000    -0.150051500000000    -0.081594000000000
    -0.041669500000000    -0.040297500000000    -0.047387000000000
2 12
    -0.041592500000000     0.076254500000000     0.041672000000000
     0.136235500000000    -0.150063000000000    -0.040273000000000
     0.120782000000000    -0.081433000000000    -0.047405500000000
2 13
    -0.253357000000000     0.136547500000000     0.112589500000000
     0.136657000000000     0.072735500000000    -0.110542500000000
     0.112601000000000    -0.110570500000000     0.118121000000000
2 14
    -0.358949500000000    -0.842532500000000    -0.571940500000000
    -0.842427500000000    -0.035287500000000    -0.364541500000000
    -0.571826500000000    -0.364493000000000    -0.128030000000000
2 15
    -0.049236000000000     0.000000000000000     0.030396000000000
     0.000000000000000    -0.150313000000000    -0.000000000000000
     0.030447000000000     0.000000000000000     0.028094500000000
2 16
     0.028992000000000     0.000000000000000    -0.017685000000000
    -0.000000000000000    -0.259881000000000     0.000000000000000
    -0.017600000000000     0.000000000000000    -0.009000000000000
2 17
    -0.253357000000000    -0.136547500000000     0.112589500000000
    -0.136657000000000     0.072735500000000     0.110542500000000
     0.112601000000000     0.110570500000000     0.118121000000000
2 18
    -0.358949500000000     0.842532500000000    -0.571940500000000
     0.842427500000000    -0.035287500000000     0.364541500000000
    -0.571826500000000     0.364493000000000    -0.128030000000000
2 19
    -0.148626000000000    -0.019199500000000    -0.013930000000000
    -0.019178500000000     0.038091500000000     0.013516500000000
     0.013926000000000    -0.013486000000000    -0.041574500000000
2 20
     0.274261500000000     0.134092000000000     0.046537000000000
     0.134136500000000     0.112948500000000     0.012138000000000
    -0.046448000000000    -0.012082500000000    -0.423749000000000
2 21
    -0.098575000000000     0.000000000000000    -0.010801000000000
     0.000000000000000    -0.076409000000000     0.000000000000000
     0.010886000000000     0.000000000000000    -0.026924000000000
2 22
     0.128874000000000     0.000000000000000     0.001154000000000
     0.000000000000000    -0.228606000000000     0.000000000000000
    -0.001237000000000     0.000000000000000    -0.079782000000000
2 23
    -0.148626000000000     0.019199500000000    -0.013930000000000
     0.019178500000000     0.038091500000000    -0.013516500000000
     0.013926000000000     0.013486000000000    -0.041574500000000
2 24
     0.274261500000000    -0.134092000000000     0.046537000000000
    -0.134136500000000     0.112948500000000    -0.012138000000000
    -0.046448000000000     0.012082500000000    -0.423749000000000
2 25
    -0.025255500000000     0.000000000000000     0.001999500000000
     0.000000000000000     0.023712000000000     0.000000000000000
    -0.006749000000000     0.000000000000000     0.003342500000000
2 26
     0.190176000000000     0.000000000000000    -0.095811500000000
     0.000000000000000     0.227543000000000     0.000000000000000
     0.104717000000000     0.000000000000000    -0.389469500000000
2 27
    -0.021504500000000     0.001880000000000     0.002028500000000
     0.001025500000000    -0.011983000000000    -0.003176000000000
    -0.004801500000000     0.002774000000000     0.002856000000000
2 28
     0.052161000000000    -0.024367000000000    -0.005079000000000
     0.003929000000000    -0.081396000000000     0.019042500000000
    -0.028833500000000     0.065273500000000    -0.013640000000000
2 29
    -0.021504500000000    -0.001880000000000     0.002028500000000
    -0.001025500000000    -0.011983000000000     0.003176000000000
    -0.004801500000000    -0.002774000000000     0.002856000000000
2 30
     0.052161000000000     0.024367000000000    -0.005079000000000
    -0.003929000000000    -0.081396000000000    -0.019042500000000
    -0.028833500000000    -0.065273500000000    -0.013640000000000
2 31
    -0.105275000000000     0.000000000000000    -0.023631500000000
    -0.000000000000000     0.139939000000000     0.000000000000000
    -0.009687500000000     0.000000000000000     0.043958500000000
2 32
    -0.409201500000000     0.000000000000000    -0.197732000000000
     0.000000000000000    -0.022050000000000    -0.000000000000000
     0.095572000000000     0.000000000000000    -0.014107500000000
2 33
    -0.033054000000000     0.072348000000000     0.021070500000000
     0.023012500000000    -0.074240000000000    -0.005157000000000
    -0.014498500000000     0.037936000000000     0.011295000000000
2 34
    -0.015172500000000    -0.027268000000000    -0.005193000000000
    -0.018209500000000    -0.013844500000000     0.005220000000000
     0.012402500000000     0.013460000000000     0.015243500000000
2 35
    -0.033054000000000    -0.072348000000000     0.021070500000000
    -0.023012500000000    -0.074240000000000     0.005157000000000
    -0.014498500000000    -0.037936000000000     0.011295000000000
2 36
    -0.015172500000000     0.027268000000000    -0.005193000000000
     0.018209500000000    -0.013844500000000    -0.005220000000000
     0.012402500000000    -0.013460000000000     0.015243500000000
2 37
    -0.028421500000000     0.013372500000000     0.014775000000000
     0.004033000000000     0.010401500000000    -0.003130500000000
     0.016362000000000    -0.017607500000000    -0.012737000000000
2 38
     0.006168000000000    -0.011418000000000    -0.006686500000000
    -0.008934500000000     0.020394000000000     0.023873500000000
    -0.000527000000000    -0.024053000000000    -0.035026000000000
2 39
    -0.009135500000000     0.000000000000000     0.000317000000000
    -0.000000000000000    -0.019238000000000    -0.000000000000000
     0.003111000000000     0.000000000000000    -0.005720000000000
2 40
     0.000884500000000     0.000000000000000    -0.003311000000000
    -0.000000000000000    -0.039138000000000    -0.000000000000000
    -0.005106500000000     0.000000000000000    -0.003948500000000
2 41
    -0.028421500000000    -0.013372500000000     0.014775000000000
    -0.004033000000000     0.010401500000000     0.003130500000000
     0.016362000000000     0.017607500000000    -0.012737000000000
2 42
     0.006168000000000     0.011418000000000    -0.006686500000000
     0.008934500000000     0.020394000000000    -0.023873500000000
    -0.000527000000000     0.024053000000000    -0.035026000000000
2 43
    -0.020392500000000    -0.010542000000000    -0.001226500000000
    -0.002546500000000     0.008885000000000    -0.006217000000000
    -0.005788000000000    -0.006267000000000    -0.000721500000000
2 44
     0.081257000000000     0.225076500000000     0.191135500000000
     0.082166500000000    -0.247785500000000    -0.340785000000000
     0.055948500000000    -0.445182500000000    -0.268815000000000
2 45
    -0.014380000000000     0.000000000000000     0.002082500000000
    -0.000000000000000    -0.017775000000000     0.000000000000000
    -0.002903000000000     0.000000000000000     0.001168000000000
2 46
     0.018640000000000     0.000000000000000    -0.000016500000000
     0.000000000000000    -0.051068000000000    -0.000000000000000
    -0.005816000000000     0.000000000000000     0.004598500000000
2 47
    -0.020392500000000     0.010542000000000    -0.001226500000000
     0.002546500000000     0.008885000000000     0.006217000000000
    -0.005788000000000     0.006267000000000    -0.000721500000000
2 48
     0.081257000000000    -0.225076500000000     0.191135500000000
    -0.082166500000000    -0.247785500000000     0.340785000000000
     0.055948500000000     0.445182500000000    -0.268815000000000
2 49
     0.098889000000000    -0.011072000000000     0.006299000000000
    -0.033334000000000    -0.020109500000000    -0.015216000000000
     0.022192000000000    -0.004566000000000     0.001811000000000
2 50
    -0.287157000000000    -0.089214500000000     0.120462000000000