96   
20   

1    
  0.0100000000000000   0.0000000000000000   0.0000000000000000
  -0.0607821300    0.0000000000   -0.0104784300
   0.0012193600    0.0000000000   -0.0002444500
  -0.0052336100    0.0001852500   -0.0007639100
   0.0001216300    0.0001299200   -0.0002559500
  -0.0052336100   -0.0001852500   -0.0007639100
   0.0001216300   -0.0001299200   -0.0002559500
   0.0005544200    0.0000000000   -0.0023824400
   0.0005483800    0.0000000000    0.0028333700
  -0.0012625000    0.0007605100   -0.0000452300
  -0.0012568800   -0.0013605400    0.0015793400
  -0.0012625000   -0.0007605100   -0.0000452300
  -0.0012568800    0.0013605400    0.0015793400
   0.0052653800    0.0084682200    0.0061201800
   0.0042052900   -0.0013598900   -0.0007494800
   0.0013815500    0.0000000000    0.0005491300
   0.0021693100    0.0000000000    0.0000687400
   0.0052653800   -0.0084682200    0.0061201800
   0.0042052900    0.0013598900   -0.0007494800
  -0.0010657900   -0.0013392900   -0.0008408100
   0.0031595800    0.0001938700   -0.0002316600
   0.0003840100    0.0000000000   -0.0003836000
   0.0026608600    0.0000000000   -0.0002633400
  -0.0010657900    0.0013392900   -0.0008408100
   0.0031595800   -0.0001938700   -0.0002316600
  -0.0020164500    0.0000000000   -0.0004169900
   0.0001287900    0.0000000000   -0.0014092300
  -0.0006431400    0.0002449800   -0.0013343200
   0.0000914400   -0.0000170900   -0.0014070700
  -0.0006431400   -0.0002449800   -0.0013343200
   0.0000914400    0.0000170900   -0.0014070700
   0.0040374600    0.0000000000    0.0033883900
   0.0009278100    0.0000000000    0.0016191600
   0.0000272200    0.0002754800    0.0014384600
   0.0002132200   -0.0007223600    0.0011700500
   0.0000272200   -0.0002754800    0.0014384600
   0.0002132200    0.0007223600    0.0011700500
   0.0000610400    0.0001127000    0.0014536800
   0.0004041300   -0.0001351600    0.0012353400
   0.0001023500    0.0000000000    0.0014126500
   0.0002238800    0.0000000000    0.0013917900
   0.0000610400   -0.0001127000    0.0014536800
   0.0004041300    0.0001351600    0.0012353400
  -0.0006868400   -0.0022578900   -0.0032949900
   0.0003325800    0.0001040700   -0.0013773400
  -0.0000737500    0.0000000000   -0.0013799300
   0.0002656100    0.0000000000   -0.0014081700
  -0.0006868400    0.0022578900   -0.0032949900
   0.0003325800   -0.0001040700   -0.0013773400
   0.0024974700    0.0009094100   -0.0022422300
  -0.0013684200    0.0001127000   -0.0010831000
   0.0000466700    0.0000000000   -0.0010124700
  -0.0008824700    0.0000000000   -0.0009892100
   0.0024974700   -0.0009094100   -0.0022422300
  -0.0013684200   -0.0001127000   -0.0010831000
  -0.0018065600   -0.0010358100    0.0014227000
   0.0025833100   -0.0005537800    0.0013047800
  -0.0007238000    0.0000000000    0.0010114400
   0.0000243600    0.0000000000    0.0011198800
  -0.0018065600    0.0010358100    0.0014227000
   0.0025833100    0.0005537800    0.0013047800
   0.0013126600    0.0000000000    0.0000098600
  -0.0005948600    0.0000000000    0.0011614400
   0.0010036000   -0.0004171600    0.0006732600
  -0.0001512900    0.0001577700    0.0010805800
   0.0010036000    0.0004171600    0.0006732600
  -0.0001512900   -0.0001577700    0.0010805800
   0.0027536100    0.0000000000   -0.0014143800
  -0.0009232000    0.0000000000   -0.0016634400
   0.0009162700    0.0003418300   -0.0008355400
  -0.0002813600   -0.0003672700   -0.0011749500
   0.0009162700   -0.0003418300   -0.0008355400
  -0.0002813600    0.0003672700   -0.0011749500
   0.0031858500    0.0000000000   -0.0031935500
  -0.0000538600    0.0000000000   -0.0006167500
   0.0023120600    0.0002804800   -0.0012074400
   0.0004589800   -0.0001005600   -0.0007327000
   0.0023120600   -0.0002804800   -0.0012074400
   0.0004589800    0.0001005600   -0.0007327000
   0.0247618100    0.0000000000    0.0003005300
  -0.0011640800    0.0000000000    0.0009951800
   0.0018551100   -0.0015515600    0.0011997900
  -0.0000450500    0.0009803500    0.0011350100
   0.0018551100    0.0015515600    0.0011997900
  -0.0000450500   -0.0009803500    0.0011350100
  -0.0016272200   -0.0005444900    0.0010783200
  -0.0011153200    0.0007181600    0.0007006200
  -0.0014469300    0.0000000000    0.0010164400
  -0.0007450900    0.0000000000    0.0005168100
  -0.0016272200    0.0005444900    0.0010783200
  -0.0011153200   -0.0007181600    0.0007006200
   0.0060832800    0.0045811600    0.0028855000
  -0.0025626400   -0.0000444500   -0.0011096100
  -0.0003670700    0.0000000000   -0.0007558500
  -0.0018850700    0.0000000000   -0.0009651600
   0.0060832800   -0.0045811600    0.0028855000
  -0.0025626400    0.0000444500   -0.0011096100

1    
 -0.0100000000000000   0.0000000000000000   0.0000000000000000
   0.0562505200    0.0000000000    0.0094142700
  -0.0045641600    0.0000000000   -0.0004961600
   0.0018883700   -0.0002220500    0.0000269700
  -0.0034647700   -0.0001313300   -0.0004866400
   0.0018883700    0.0002220500    0.0000269700
  -0.0034647700    0.0001313300   -0.0004866400
  -0.0038965200    0.0000000000    0.0030959900
  -0.0039025800    0.0000000000   -0.0021066800
  -0.0020943500   -0.0007645800    0.0007882100
  -0.0020878700    0.0013651300   -0.0008371400
  -0.0020943500    0.0007645800    0.0007882100
  -0.0020878700   -0.0013651300   -0.0008371400
  -0.0019136100   -0.0083824300   -0.0053186300
  -0.0008618500    0.0013710600    0.0015023100
   0.0019613900    0.0000000000    0.0001954300
   0.0011845900    0.0000000000    0.0006766600
  -0.0019136100    0.0083824300   -0.0053186300
  -0.0008618500   -0.0013710600    0.0015023100
   0.0044194400    0.0013425500    0.0000899300
   0.0001870600   -0.0001901200   -0.0005102600
   0.0029614900    0.0000000000   -0.0003605200
   0.0006893600    0.0000000000   -0.0004793600
   0.0044194400   -0.0013425500    0.0000899300
   0.0001870600    0.0001901200   -0.0005102600
   0.0017870700    0.0000000000   -0.0023332200
  -0.0003763200    0.0000000000   -0.0013692400
   0.0004000800   -0.0002423600   -0.0014359000
  -0.0003386500    0.0000205100   -0.0013665000
   0.0004000800    0.0002423600   -0.0014359000
  -0.0003386500   -0.0000205100   -0.0013665000
  -0.0041465700    0.0000000000   -0.0005662500
  -0.0011776900    0.0000000000    0.0011465300
  -0.0002762300   -0.0002698800    0.0013346000
  -0.0004478600    0.0007246000    0.0015914600
  -0.0002762300    0.0002698800    0.0013346000
  -0.0004478600   -0.0007246000    0.0015914600
   0.0001844000   -0.0001156600    0.0013199500
  -0.0001643000    0.0001322900    0.0015308400
   0.0001200400    0.0000000000    0.0013464300
   0.0000411700    0.0000000000    0.0013981300
   0.0001844000    0.0001156600    0.0013199500
  -0.0001643000   -0.0001322900    0.0015308400
   0.0009383000    0.0022436400    0.0005277200
  -0.0000752700   -0.0001067700   -0.0014018700
   0.0002990500    0.0000000000   -0.0013802600
  -0.0000219900    0.0000000000   -0.0013665200
   0.0009383000   -0.0022436400    0.0005277200
  -0.0000752700    0.0001067700   -0.0014018700
  -0.0032456700   -0.0008748800    0.0001670100
   0.0006093600   -0.0001087400   -0.0009571200
  -0.0007918000    0.0000000000   -0.0010315900
   0.0001329900    0.0000000000   -0.0010520600
  -0.0032456700    0.0008748800    0.0001670100
   0.0006093600    0.0001087400   -0.0009571200
   0.0010418700    0.0010310900    0.0006227500
  -0.0034835100    0.0006858900    0.0006878300
  -0.0000223900    0.0000000000    0.0010310300
  -0.0007750000    0.0000000000    0.0009201900
   0.0010418700   -0.0010310900    0.0006227500
  -0.0034835100   -0.0006858900    0.0006878300
  -0.0005589000    0.0000000000    0.0020271500
   0.0013398200    0.0000000000    0.0008809000
  -0.0002426800    0.0004109500    0.0013657500
   0.0009065000   -0.0001638500    0.0009609400
  -0.0002426800   -0.0004109500    0.0013657500
   0.0009065000    0.0001638500    0.0009609400
  -0.0020651600    0.0000000000   -0.0005427600
   0.0016669700    0.0000000000   -0.0003830000
  -0.0001644800   -0.0003457400   -0.0012055300
   0.0010375000    0.0003595600   -0.0008677600
  -0.0001644800    0.0003457400   -0.0012055300
   0.0010375000   -0.0003595600   -0.0008677600
  -0.0009141000    0.0000000000    0.0013976200
   0.0023545200    0.0000000000   -0.0011606700
  -0.0000231500   -0.0002486200   -0.0005812000
   0.0018400200    0.0001301300   -0.0010530800
  -0.0000231500    0.0002486200   -0.0005812000
   0.0018400200   -0.0001301300   -0.0010530800
  -0.0210674200    0.0000000000    0.0017529100
   0.0034592900    0.0000000000    0.0007924100
   0.0004537300    0.0015747900    0.0005880800
   0.0023234600   -0.0009501500    0.0006632700
   0.0004537300   -0.0015747900    0.0005880800
   0.0023234600    0.0009501500    0.0006632700
  -0.0006641400    0.0005088700    0.0007089200
  -0.0011742600   -0.0007508800    0.0010980800
  -0.0008237300    0.0000000000    0.0007843000
  -0.0015714400    0.0000000000    0.0012543400
  -0.0006641400   -0.0005088700    0.0007089200
  -0.0011742600    0.0007508800    0.0010980800
  -0.0083890800   -0.0045968700   -0.0046948800
   0.0002543800    0.0000105800   -0.0006715700
  -0.0019050800    0.0000000000   -0.0010392000
  -0.0004129000    0.0000000000   -0.0008198300
  -0.0083890800    0.0045968700   -0.0046948800
   0.0002543800   -0.0000105800   -0.0006715700

1    
  0.0000000000000000   0.0100000000000000   0.0000000000000000
  -0.0017870700   -0.0710491600   -0.0009158200
  -0.0016748300   -0.0009668900   -0.0003709100
  -0.0018779000    0.0121687200   -0.0013361500
  -0.0018052500    0.0004815600   -0.0003910700
  -0.0014696600    0.0120548000    0.0005773800
  -0.0015422000    0.0004874000   -0.0003535900
  -0.0016771800   -0.0030412800    0.0003769800
  -0.0016669200   -0.0030407400    0.0003722300
  -0.0003106100    0.0014958600   -0.0000304700
  -0.0024368400    0.0014983100   -0.0004435600
  -0.0030353200    0.0015054000    0.0007749900
  -0.0009123800    0.0015027200    0.0011883200
   0.0101250200    0.0003380700    0.0040245800
   0.0003047700   -0.0007299000    0.0014781400
   0.0016791200    0.0025988100    0.0003742100
   0.0016701200    0.0015031300    0.0003713900
  -0.0067235300    0.0003676800   -0.0032662500
   0.0030379100   -0.0007248100   -0.0007327100
   0.0003305300   -0.0011345600   -0.0004901700
   0.0018641400   -0.0003808000   -0.0005066700
   0.0016725900    0.0022860600   -0.0003694600
   0.0016738900    0.0007640900   -0.0003709600
   0.0030132600   -0.0011244100   -0.0002474100
   0.0014805700   -0.0003810300   -0.0002363400
  -0.0001189700   -0.0022754300   -0.0013675200
  -0.0001204100   -0.0002371200   -0.0013860800
  -0.0001579400    0.0008146500   -0.0015743700
  -0.0001323300    0.0001210600   -0.0013531000
  -0.0000793600    0.0008132700   -0.0011935200
  -0.0001118200    0.0001186000   -0.0014166200
  -0.0001207100    0.0002205000    0.0013880700
  -0.0001195500   -0.0013993900    0.0013871500
   0.0000602100    0.0001391800    0.0013319300
  -0.0003453500    0.0007422000    0.0014303700
  -0.0003039800    0.0001377100    0.0014363300
   0.0001149000    0.0007426000    0.0013272300
   0.0002110400   -0.0002058200    0.0011461600
   0.0000783700   -0.0001059800    0.0014137900
   0.0001150700    0.0003913800    0.0013820500
   0.0001266000    0.0001923800    0.0013914900
   0.0000323500   -0.0002020600    0.0016236300
   0.0001590300   -0.0001020500    0.0013511800
  -0.0007070300    0.0024906900    0.0020563800
   0.0001485800   -0.0000908400   -0.0013236800
   0.0001125900    0.0005106800   -0.0013808300
   0.0001210600    0.0001777500   -0.0013865800
   0.0009363000    0.0024650200   -0.0047593200
   0.0000976500   -0.0000868600   -0.0014480200
  -0.0001686400    0.0023818100   -0.0011137000
  -0.0000454200    0.0002042200   -0.0008689700
  -0.0003763800   -0.0017791500   -0.0010179100
  -0.0003742400   -0.0003974800   -0.0010213900
  -0.0005407300    0.0022805400   -0.0010200800
  -0.0007121000    0.0001979700   -0.0011732900
  -0.0008929300    0.0003572500    0.0011216900
  -0.0012319500    0.0030804400    0.0008630200
  -0.0003755000   -0.0006464100    0.0010222700
  -0.0003707700   -0.0015623700    0.0010225500
   0.0001364900    0.0003455800    0.0009209100
   0.0003722600    0.0029767700    0.0011499700
   0.0003736600    0.0017825000    0.0010205600
   0.0003732800    0.0003988900    0.0010216700
   0.0001151200   -0.0008714100    0.0008183200
   0.0005193500   -0.0002044300    0.0010201200
   0.0006410400   -0.0008685200    0.0012205900
   0.0002390100   -0.0002000000    0.0010221500
   0.0003787000    0.0032129800   -0.0010240400
   0.0003745100    0.0008313900   -0.0010205600
   0.0011452600   -0.0012925800   -0.0017236200
   0.0000420400   -0.0004357900   -0.0011684900
  -0.0003822400   -0.0012843400   -0.0003255000
   0.0007137200   -0.0004311800   -0.0008750800
   0.0011394500    0.0030731700   -0.0009109400
   0.0011457900    0.0005180400   -0.0008940600
   0.0014372200   -0.0013382300   -0.0001632800
   0.0008362400   -0.0002410400   -0.0007613100
   0.0008483500   -0.0013748100   -0.0016294000
   0.0014578900   -0.0002740100   -0.0010280700
   0.0011337800    0.0067527800    0.0009007700
   0.0011452800    0.0017431300    0.0008923800
  -0.0005268300   -0.0019422700    0.0004828500
   0.0017498400   -0.0008939200    0.0005620200
   0.0028046400   -0.0019698900    0.0013037400
   0.0005276200   -0.0009299500    0.0012417800
  -0.0018355700    0.0005828600    0.0012051500
  -0.0006052100    0.0006399100    0.0010254600
  -0.0011401700   -0.0011897200    0.0008982100
  -0.0011469100   -0.0012838300    0.0008904600
  -0.0004537600    0.0006123500    0.0005857500
  -0.0016805000    0.0006670800    0.0007723700
  -0.0001704100    0.0156890700    0.0087821800
  -0.0009771000    0.0002652600   -0.0008734200
  -0.0011407300   -0.0037300400   -0.0009067000
  -0.0011458300   -0.0005659500   -0.0008930500
  -0.0019678100    0.0149661400   -0.0099926000
  -0.0013173000    0.0002960400   -0.0009142600

1    
  0.0000000000000000   0.0000000000000000   0.0100000000000000
  -0.0116966500    0.0000000000   -0.0467016800
  -0.0015510700    0.0000000000   -0.0007458400
  -0.0020722300    0.0009453400   -0.0037366400
  -0.0015585700    0.0000184700   -0.0005850700
  -0.0020722300   -0.0009453400   -0.0037366400
  -0.0015585700   -0.0000184700   -0.0005850700
  -0.0041360800    0.0000000000    0.0019727700
   0.0010506300    0.0000000000    0.0019697200
  -0.0028818500   -0.0008122000    0.0008493400
  -0.0012603000   -0.0004052700    0.0008513300
  -0.0028818500    0.0008122000    0.0008493400
  -0.0012603000    0.0004052700    0.0008513300
   0.0073969100    0.0036480900    0.0016446000
   0.0005486400    0.0011088500   -0.0008081400
   0.0018490400    0.0000000000    0.0004639100
   0.0013709700    0.0000000000    0.0000932300
   0.0073969100   -0.0036480900    0.0016446000
   0.0005486400   -0.0011088500   -0.0008081400
   0.0021366100    0.0001329000    0.0038570700
   0.0015374000    0.0001365300    0.0000389200
   0.0016898500    0.0000000000    0.0004221900
   0.0015658700    0.0000000000   -0.0001056000
   0.0021366100   -0.0001329000    0.0038570700
   0.0015374000   -0.0001365300    0.0000389200
  -0.0011588200    0.0000000000    0.0024839300
  -0.0000433600    0.0000000000   -0.0014113300
   0.0001755900   -0.0006498500   -0.0012411700
  -0.0000616600   -0.0000262000   -0.0014034700
   0.0001755900    0.0006498500   -0.0012411700
  -0.0000616600    0.0000262000   -0.0014034700
  -0.0010630500    0.0000000000    0.0015211400
  -0.0000134400    0.0000000000    0.0009394800
  -0.0002349200   -0.0001329600    0.0012242300
   0.0000301700   -0.0003780600    0.0012661900
  -0.0002349200    0.0001329600    0.0012242300
   0.0000301700    0.0003780600    0.0012661900
   0.0001128400    0.0002405500    0.0017234100
  -0.0000501500    0.0001742600    0.0015056400
   0.0001699300    0.0000000000    0.0014246800
   0.0000691500    0.0000000000    0.0014280900
   0.0001128400   -0.0002405500    0.0017234100
  -0.0000501500   -0.0001742600    0.0015056400
  -0.0004578900    0.0044739500    0.0013193500
   0.0001629300    0.0000611300   -0.0013648600
   0.0001754200    0.0000000000   -0.0014296900
   0.0001414800    0.0000000000   -0.0013918400
  -0.0004578900   -0.0044739500    0.0013193500
   0.0001629300   -0.0000611300   -0.0013648600
  -0.0011857700   -0.0005982400    0.0010748200
  -0.0005986400    0.0000479000   -0.0010387500
  -0.0005170300    0.0000000000   -0.0007422600
  -0.0004279400    0.0000000000   -0.0009993800
  -0.0011857700    0.0005982400    0.0010748200
  -0.0005986400   -0.0000479000   -0.0010387500
  -0.0003205500   -0.0001737100    0.0015855800
  -0.0002055800    0.0001027800    0.0023925900
  -0.0003589100    0.0000000000    0.0012194200
  -0.0001942500    0.0000000000    0.0012124500
  -0.0003205500    0.0001737100    0.0015855800
  -0.0002055800   -0.0001027800    0.0023925900
  -0.0001118000    0.0000000000   -0.0014030800
   0.0006944800    0.0000000000    0.0006256600
   0.0004083200   -0.0002019200    0.0003142500
   0.0003999900   -0.0000372000    0.0008795100
   0.0004083200    0.0002019200    0.0003142500
   0.0003999900    0.0000372000    0.0008795100
  -0.0008547800    0.0000000000    0.0023481700
  -0.0000822200    0.0000000000   -0.0012016200
   0.0006513600   -0.0006208900   -0.0012106900
   0.0001519800   -0.0002213200   -0.0011298600
   0.0006513600    0.0006208900   -0.0012106900
   0.0001519800    0.0002213200   -0.0011298600
   0.0005841200    0.0000000000   -0.0059336500
   0.0015496600    0.0000000000   -0.0010728100
   0.0007129700    0.0005471100   -0.0016090100
   0.0014146200   -0.0000083700   -0.0010182800
   0.0007129700   -0.0005471100   -0.0016090100
   0.0014146200    0.0000083700   -0.0010182800
   0.0060498600    0.0000000000    0.0059725900
   0.0013526400    0.0000000000    0.0018378000
   0.0009984400   -0.0005322500    0.0018332800
   0.0008831800    0.0001567100    0.0014228500
   0.0009984400    0.0005322500    0.0018332800
   0.0008831800   -0.0001567100    0.0014228500
  -0.0007021300   -0.0001079200   -0.0000101400
  -0.0011995700   -0.0000478700   -0.0000541300
  -0.0011172500    0.0000000000    0.0004744100
  -0.0011064100    0.0000000000    0.0005648300
  -0.0007021300    0.0001079200   -0.0000101400
  -0.0011995700    0.0000478700   -0.0000541300
   0.0002482100    0.0087098100    0.0110518000
  -0.0009796500   -0.0000868300   -0.0007380700
  -0.0011463900    0.0000000000   -0.0008030100
  -0.0011349400    0.0000000000   -0.0008056600
   0.0002482100   -0.0087098100    0.0110518000
  -0.0009796500    0.0000868300   -0.0007380700

1    
  0.0000000000000000   0.0000000000000000  -0.0100000000000000
   0.0081891700    0.0000000000    0.0456420100
  -0.0018042900    0.0000000000   -0.0000050400
  -0.0012794300   -0.0009702600    0.0030010900
  -0.0017923200   -0.0000200300   -0.0001660200
  -0.0012794300    0.0009702600    0.0030010900
  -0.0017923200    0.0000200300   -0.0001660200
   0.0008043300    0.0000000000   -0.0012176600
  -0.0044285300    0.0000000000   -0.0012183300
  -0.0004662100    0.0008164600   -0.0000987700
  -0.0020936900    0.0004006800   -0.0000964100
  -0.0004662100   -0.0008164600   -0.0000987700
  -0.0020936900   -0.0004006800   -0.0000964100
  -0.0040396200   -0.0036417700   -0.0009160000
   0.0028006600   -0.0011025600    0.0015542800
   0.0014970400    0.0000000000    0.0002839100
   0.0019799100    0.0000000000    0.0006551200
  -0.0040396200    0.0036417700   -0.0009160000
   0.0028006600    0.0011025600    0.0015542800
   0.0012076500   -0.0001087500   -0.0046179100
   0.0018159200   -0.0001331900   -0.0007925700
   0.0016651100    0.0000000000   -0.0011734500
   0.0017835900    0.0000000000   -0.0006440800
   0.0012076500    0.0001087500   -0.0046179100
   0.0018159200    0.0001331900   -0.0007925700
   0.0009355200    0.0000000000   -0.0053054600
  -0.0001783400    0.0000000000   -0.0013444800
  -0.0004010800    0.0006556200   -0.0015139700
  -0.0001576900    0.0000292800   -0.0013463500
  -0.0004010800   -0.0006556200   -0.0015139700
  -0.0001576900   -0.0000292800   -0.0013463500
   0.0008483900    0.0000000000    0.0012389900
  -0.0002071900    0.0000000000    0.0018186500
   0.0000131300    0.0001362400    0.0015291000
  -0.0002598000    0.0003806600    0.0014920900
   0.0000131300   -0.0001362400    0.0015291000
  -0.0002598000   -0.0003806600    0.0014920900
   0.0001023000   -0.0002405100    0.0010228900
   0.0002770900   -0.0001778900    0.0012509000
   0.0000678000    0.0000000000    0.0013457100
   0.0001313700    0.0000000000    0.0013136900
   0.0001023000    0.0002405100    0.0010228900
   0.0002770900    0.0001778900    0.0012509000
   0.0006610800   -0.0044297000   -0.0040569500
   0.0000471700   -0.0000642100   -0.0013792900
   0.0000591000    0.0000000000   -0.0013377200
   0.0000834200    0.0000000000   -0.0013684800
   0.0006610800    0.0044297000   -0.0040569500
   0.0000471700    0.0000642100   -0.0013792900
   0.0004850100    0.0006947900   -0.0032124600
  -0.0001548000   -0.0000434200   -0.0010025300
  -0.0002268600    0.0000000000   -0.0013005100
  -0.0003167700    0.0000000000   -0.0010414400
   0.0004850100   -0.0006947900   -0.0032124600
  -0.0001548000    0.0000434200   -0.0010025300
  -0.0004322500    0.0001817700    0.0004510600
  -0.0005436700   -0.0001031600   -0.0003526400
  -0.0003858300    0.0000000000    0.0008203900
  -0.0005527100    0.0000000000    0.0008275200
  -0.0004322500   -0.0001817700    0.0004510600
  -0.0005436700    0.0001031600   -0.0003526400
   0.0008417400    0.0000000000    0.0034324200
   0.0000491800    0.0000000000    0.0014167600
   0.0003437000    0.0001956100    0.0017300100
   0.0003528800    0.0000305300    0.0011613700
   0.0003437000   -0.0001956100    0.0017300100
   0.0003528800   -0.0000305300    0.0011613700
   0.0014624300    0.0000000000   -0.0041751400
   0.0008270100    0.0000000000   -0.0008354400
   0.0001007500    0.0006142500   -0.0008268400
   0.0006020200    0.0002164400   -0.0009094700
   0.0001007500   -0.0006142500   -0.0008268400
   0.0006020200   -0.0002164400   -0.0009094700
   0.0016967800    0.0000000000    0.0041748700
   0.0007088200    0.0000000000   -0.0007338000
   0.0015485400   -0.0005216500   -0.0002043500
   0.0008391700    0.0000397200   -0.0007977900
   0.0015485400    0.0005216500   -0.0002043500
   0.0008391700   -0.0000397200   -0.0007977900
  -0.0037910700    0.0000000000   -0.0041976200
   0.0009041900    0.0000000000   -0.0000255000
   0.0012749000    0.0005666300   -0.0000331300
   0.0013748200   -0.0001256400    0.0003904800
   0.0012749000   -0.0005666300   -0.0000331300
   0.0013748200    0.0001256400    0.0003904800
  -0.0015526400    0.0000709300    0.0018311100
  -0.0010573600    0.0000134900    0.0018656400
  -0.0011586400    0.0000000000    0.0013238200
  -0.0011352500    0.0000000000    0.0012555100
  -0.0015526400   -0.0000709300    0.0018311100
  -0.0010573600   -0.0000134900    0.0018656400
  -0.0023985300   -0.0083317500   -0.0126890700
  -0.0012700100    0.0000546700   -0.0010794200
  -0.0011104100    0.0000000000   -0.0010058100
  -0.0011343500    0.0000000000   -0.0009956000
  -0.0023985300    0.0083317500   -0.0126890700
  -0.0012700100   -0.0000546700   -0.0010794200

25   
  0.0100000000000000   0.0000000000000000   0.0000000000000000
  -0.0035720000    0.0000000000   -0.0014272100
  -0.0014195800    0.0000000000   -0.0003042200
  -0.0021969500    0.0000388800   -0.0000801600
  -0.0014590100    0.0000105500   -0.0003218100
  -0.0021969500   -0.0000388800   -0.0000801600
  -0.0014590100   -0.0000105500   -0.0003218100
  -0.0006169600    0.0000000000    0.0002681900
   0.0024014300    0.0000000000    0.0013123900
  -0.0013353300    0.0002251500    0.0002222200
  -0.0015227000   -0.0001832400    0.0004990100
  -0.0013353300   -0.0002251500    0.0002222200
  -0.0015227000    0.0001832400    0.0004990100
   0.0016120700    0.0000870800    0.0003759700
   0.0019568800   -0.0000453700    0.0002104900
   0.0016576800    0.0000000000    0.0004251900
   0.0017711800    0.0000000000    0.0003372900
   0.0016120700   -0.0000870800    0.0003759700
   0.0019568800    0.0000453700    0.0002104900
   0.0008619700   -0.0008614400    0.0002160400
   0.0018820200    0.0000284000   -0.0004288600
   0.0014790700    0.0000000000   -0.0004274200
   0.0018235000    0.0000000000   -0.0004054800
   0.0008619700    0.0008614400    0.0002160400
   0.0018820200   -0.0000284000   -0.0004288600
  -0.2879280100    0.0000000000   -0.2146854200
  -0.0001128100    0.0000000000   -0.0013667600
  -0.0003107400    0.0000959600   -0.0014339700
  -0.0001134200    0.0000105600   -0.0013824900
  -0.0003107400   -0.0000959600   -0.0014339700
  -0.0001134200   -0.0000105600   -0.0013824900
  -0.0000323500    0.0000000000    0.0014638600
  -0.0000319400    0.0000000000    0.0013770300
  -0.0000655000    0.0000355200    0.0014195000
  -0.0000622000   -0.0001206200    0.0013748600
  -0.0000655000   -0.0000355200    0.0014195000
  -0.0000622000    0.0001206200    0.0013748600
   0.0001448900    0.0000439900    0.0013349400
   0.0001577600   -0.0000443100    0.0013059800
   0.0001067400    0.0000000000    0.0013734200
   0.0001417000    0.0000000000    0.0013846800
   0.0001448900   -0.0000439900    0.0013349400
   0.0001577600    0.0000443100    0.0013059800
   0.0000704200   -0.0000185400   -0.0014070700
   0.0001394800    0.0000030600   -0.0013860500
   0.0000792800    0.0000000000   -0.0013723200
   0.0001373700    0.0000000000   -0.0013882300
   0.0000704200    0.0000185400   -0.0014070700
   0.0001394800   -0.0000030600   -0.0013860500
   0.0003115700   -0.0009944700   -0.0011719100
  -0.0004217700   -0.0000966400   -0.0010586000
  -0.0002881400    0.0000000000   -0.0010082300
  -0.0004435500    0.0000000000   -0.0010218400
   0.0003115700    0.0009944700   -0.0011719100
  -0.0004217700    0.0000966400   -0.0010586000
  -0.0004899000   -0.0000148500    0.0009558400
  -0.0006349500    0.0005552800    0.0014254300
  -0.0004376000    0.0000000000    0.0009833200
  -0.0003047600    0.0000000000    0.0010231000
  -0.0004899000    0.0000148500    0.0009558400
  -0.0006349500   -0.0005552800    0.0014254300
   0.0004286300    0.0000000000    0.0014663200
   0.0002661700    0.0000000000    0.0010395400
   0.0005205700    0.0000013700    0.0010673000
   0.0003018400    0.0000086800    0.0010438400
   0.0005205700   -0.0000013700    0.0010673000
   0.0003018400   -0.0000086800    0.0010438400
   0.0003712800    0.0000000000   -0.0011496800
   0.0003041400    0.0000000000   -0.0010032900
   0.0003977500    0.0000962800   -0.0010579600
   0.0003346800   -0.0000122700   -0.0010184900
   0.0003977500   -0.0000962800   -0.0010579600
   0.0003346800    0.0000122700   -0.0010184900
   0.2862994000    0.0000000000    0.2103313400
   0.0009044400    0.0000000000   -0.0008491100
   0.0013206300    0.0002481100   -0.0007216800
   0.0010039600   -0.0000008200   -0.0008714400
   0.0013206300   -0.0002481100   -0.0007216800
   0.0010039600    0.0000008200   -0.0008714400
   0.0013156400    0.0000000000    0.0007404000
   0.0009005900    0.0000000000    0.0008986700
   0.0011613100   -0.0000864500    0.0007446100
   0.0009465400    0.0001495600    0.0009223800
   0.0011613100    0.0000864500    0.0007446100
   0.0009465400   -0.0001495600    0.0009223800
  -0.0013242100   -0.0001216300    0.0010338100
  -0.0013006000   -0.0000254000    0.0009691100
  -0.0011822500    0.0000000000    0.0010021200
  -0.0011214600    0.0000000000    0.0008701500
  -0.0013242100    0.0001216300    0.0010338100
  -0.0013006000    0.0000254000    0.0009691100
  -0.0008781100    0.0001618500   -0.0008652000
  -0.0012957400   -0.0000194300   -0.0009312400
  -0.0010697800    0.0000000000   -0.0009464000
  -0.0012534300    0.0000000000   -0.0009102200
  -0.0008781100   -0.0001618500   -0.0008652000
  -0.0012957400    0.0000194300   -0.0009312400

25   
 -0.0100000000000000   0.0000000000000000   0.0000000000000000
   0.0002185500    0.0000000000    0.0006672400
  -0.0019332300    0.0000000000   -0.0004435200
  -0.0011574500   -0.0000383500   -0.0006623900
  -0.0018928100   -0.0000127800   -0.0004270100
  -0.0011574500    0.0000383500   -0.0006623900
  -0.0018928100    0.0000127800   -0.0004270100
  -0.0027289000    0.0000000000    0.0004740100
  -0.0057817800    0.0000000000   -0.0006019200
  -0.0020117600   -0.0002256000    0.0005228700
  -0.0018294600    0.0001805600    0.0002468400
  -0.0020117600    0.0002256000    0.0005228700
  -0.0018294600   -0.0001805600    0.0002468400
   0.0017399600   -0.0000867100    0.0003773200
   0.0013967700    0.0000460700    0.0005427800
   0.0016960000    0.0000000000    0.0003249900
   0.0015830500    0.0000000000    0.0004124600
   0.0017399600    0.0000867100    0.0003773200
   0.0013967700   -0.0000460700    0.0005427800
   0.0025007300    0.0007795600   -0.0009200600
   0.0014721800   -0.0000254000   -0.0003214500
   0.0018732000    0.0000000000   -0.0003207500
   0.0015305300    0.0000000000   -0.0003432300
   0.0025007300   -0.0007795600   -0.0009200600
   0.0014721800    0.0000254000   -0.0003214500
   0.3010024400    0.0000000000    0.2276492600
  -0.0001169800    0.0000000000   -0.0013969400
   0.0000766800   -0.0000911400   -0.0013280000
  -0.0001190100   -0.0000076200   -0.0013783100
   0.0000766800    0.0000911400   -0.0013280000
  -0.0001190100    0.0000076200   -0.0013783100
  -0.0001983600    0.0000000000    0.0013016600
  -0.0002000700    0.0000000000    0.0013881900
  -0.0001661600   -0.0000321400    0.0013417100
  -0.0001678600    0.0001247000    0.0013839100
  -0.0001661600    0.0000321400    0.0013417100
  -0.0001678600   -0.0001247000    0.0013839100
   0.0000881600   -0.0000482100    0.0014256000
   0.0000698700    0.0000421000    0.0014520100