# epsilon and Z* of atoms 1 4 13 17
  11.83935920    0.00000000   -0.43909669    0.00000000   11.34033522    0.00000000   -0.43909673    0.00000000   12.89939550 
  -0.50078584    0.31026372   -0.17169895    0.00876961   -0.59967068   -0.24498294   -0.50357848    0.31563885   -1.10522247 
  -0.61586087    0.00000000    0.49758790    0.00000000   -0.20816134    0.00000000    0.77666289    0.00000000   -0.14238846 
  -2.68496804    0.00000000   -0.31503534    0.00000000   -2.54616519    0.00000000   -0.04249544    0.00000000   -1.79778491 
   2.15120030    0.28899772    0.08042267    0.26327367    1.97683394    0.03026061    0.13649475   -0.06649036    2.07530915 
