natom:   96
displacements:
- atom:    1
  displacement:
    [   0.0099995753073327,  0.0000000000000000, -0.0000921611251181 ]
- atom:    1
  displacement:
    [  -0.0099995753073327,  0.0000000000000000,  0.0000921611251181 ]
- atom:    1
  displacement:
    [   0.0000000000000000,  0.0100000000000000,  0.0000000000000000 ]
- atom:    1
  displacement:
    [   0.0000000000000000, -0.0100000000000000,  0.0000000000000000 ]
- atom:    1
  displacement:
    [  -0.0014445211843416,  0.0000000000000000,  0.0098951179148097 ]
- atom:    1
  displacement:
    [   0.0014445211843416,  0.0000000000000000, -0.0098951179148097 ]
- atom:   13
  displacement:
    [   0.0099995753073327,  0.0000000000000000, -0.0000921611251181 ]
- atom:   13
  displacement:
    [   0.0000000000000000,  0.0100000000000000,  0.0000000000000000 ]
- atom:   13
  displacement:
    [   0.0000000000000000, -0.0100000000000000,  0.0000000000000000 ]
- atom:   13
  displacement:
    [  -0.0014445211843416,  0.0000000000000000,  0.0098951179148097 ]
- atom:   49
  displacement:
    [   0.0099995753073327,  0.0000000000000000, -0.0000921611251181 ]
- atom:   49
  displacement:
    [   0.0000000000000000,  0.0100000000000000,  0.0000000000000000 ]
- atom:   49
  displacement:
    [   0.0000000000000000, -0.0100000000000000,  0.0000000000000000 ]
- atom:   49
  displacement:
    [  -0.0014445211843416,  0.0000000000000000,  0.0098951179148097 ]
- atom:   65
  displacement:
    [   0.0099995753073327,  0.0000000000000000, -0.0000921611251181 ]
- atom:   65
  displacement:
    [  -0.0099995753073327,  0.0000000000000000,  0.0000921611251181 ]
- atom:   65
  displacement:
    [   0.0000000000000000,  0.0100000000000000,  0.0000000000000000 ]
- atom:   65
  displacement:
    [   0.0000000000000000, -0.0100000000000000,  0.0000000000000000 ]
- atom:   65
  displacement:
    [  -0.0014445211843416,  0.0000000000000000,  0.0098951179148097 ]
- atom:   65
  displacement:
    [   0.0014445211843416,  0.0000000000000000, -0.0098951179148097 ]
lattice:
- [    15.6881504199999995,     0.0000000000000000,    -0.1445899000000000 ] # a
- [     0.0000000000000000,     8.8147611000000001,     0.0000000000000000 ] # b
- [    -2.1864935999999999,     0.0000000000000000,    14.9777048799999992 ] # c
atoms:
- symbol: P  # 1
  position: [  0.4405583450000000,  0.9428841600000000,  0.0112763850000000 ]
  mass: 30.973762
- symbol: P  # 2
  position: [  0.9405583450000000,  0.9428841600000000,  0.0112763850000000 ]
  mass: 30.973762
- symbol: P  # 3
  position: [  0.4405583450000000,  0.9428841600000000,  0.5112763849999999 ]
  mass: 30.973762
- symbol: P  # 4
  position: [  0.9405583450000000,  0.9428841600000000,  0.5112763849999999 ]
  mass: 30.973762
- symbol: P  # 5
  position: [  0.0594416550000000,  0.9428841600000000,  0.2387236150000000 ]
  mass: 30.973762
- symbol: P  # 6
  position: [  0.5594416550000000,  0.9428841600000000,  0.2387236150000000 ]
  mass: 30.973762
- symbol: P  # 7
  position: [  0.0594416550000000,  0.9428841600000000,  0.7387236150000001 ]
  mass: 30.973762
- symbol: P  # 8
  position: [  0.5594416550000000,  0.9428841600000000,  0.7387236150000001 ]
  mass: 30.973762
- symbol: P  # 9
  position: [  0.0594416550000000,  0.0571158400000000,  0.4887236150000000 ]
  mass: 30.973762
- symbol: P  # 10
  position: [  0.5594416550000000,  0.0571158400000000,  0.4887236150000000 ]
  mass: 30.973762
- symbol: P  # 11
  position: [  0.0594416550000000,  0.0571158400000000,  0.9887236150000001 ]
  mass: 30.973762
- symbol: P  # 12
  position: [  0.5594416550000000,  0.0571158400000000,  0.9887236150000001 ]
  mass: 30.973762
- symbol: P  # 13
  position: [  0.2500000000000000,  0.6958588900000000,  0.3750000000000000 ]
  mass: 30.973762
- symbol: P  # 14
  position: [  0.7500000000000000,  0.6958588900000000,  0.3750000000000000 ]
  mass: 30.973762
- symbol: P  # 15
  position: [  0.2500000000000000,  0.6958588900000000,  0.8750000000000000 ]
  mass: 30.973762
- symbol: P  # 16
  position: [  0.7500000000000000,  0.6958588900000000,  0.8750000000000000 ]
  mass: 30.973762
- symbol: P  # 17
  position: [  0.2500000000000000,  0.3041411100000000,  0.1250000000000000 ]
  mass: 30.973762
- symbol: P  # 18
  position: [  0.7500000000000000,  0.3041411100000000,  0.1250000000000000 ]
  mass: 30.973762
- symbol: P  # 19
  position: [  0.2500000000000000,  0.3041411100000000,  0.6250000000000000 ]
  mass: 30.973762
- symbol: P  # 20
  position: [  0.7500000000000000,  0.3041411100000000,  0.6250000000000000 ]
  mass: 30.973762
- symbol: P  # 21
  position: [  0.4405583450000000,  0.0571158400000000,  0.2612763850000000 ]
  mass: 30.973762
- symbol: P  # 22
  position: [  0.9405583450000000,  0.0571158400000000,  0.2612763850000000 ]
  mass: 30.973762
- symbol: P  # 23
  position: [  0.4405583450000000,  0.0571158400000000,  0.7612763849999999 ]
  mass: 30.973762
- symbol: P  # 24
  position: [  0.9405583450000000,  0.0571158400000000,  0.7612763849999999 ]
  mass: 30.973762
- symbol: P  # 25
  position: [  0.1905583450000000,  0.4428841600000000,  0.0112763850000000 ]
  mass: 30.973762
- symbol: P  # 26
  position: [  0.6905583450000000,  0.4428841600000000,  0.0112763850000000 ]
  mass: 30.973762
- symbol: P  # 27
  position: [  0.1905583450000000,  0.4428841600000000,  0.5112763849999999 ]
  mass: 30.973762
- symbol: P  # 28
  position: [  0.6905583450000000,  0.4428841600000000,  0.5112763849999999 ]
  mass: 30.973762
- symbol: P  # 29
  position: [  0.3094416550000000,  0.4428841600000000,  0.2387236150000000 ]
  mass: 30.973762
- symbol: P  # 30
  position: [  0.8094416550000000,  0.4428841600000000,  0.2387236150000000 ]
  mass: 30.973762
- symbol: P  # 31
  position: [  0.3094416550000000,  0.4428841600000000,  0.7387236150000001 ]
  mass: 30.973762
- symbol: P  # 32
  position: [  0.8094416550000000,  0.4428841600000000,  0.7387236150000001 ]
  mass: 30.973762
- symbol: P  # 33
  position: [  0.3094416550000000,  0.5571158400000000,  0.4887236150000000 ]
  mass: 30.973762
- symbol: P  # 34
  position: [  0.8094416550000000,  0.5571158400000000,  0.4887236150000000 ]
  mass: 30.973762
- symbol: P  # 35
  position: [  0.3094416550000000,  0.5571158400000000,  0.9887236150000001 ]
  mass: 30.973762
- symbol: P  # 36
  position: [  0.8094416550000000,  0.5571158400000000,  0.9887236150000001 ]
  mass: 30.973762
- symbol: P  # 37
  position: [  0.0000000000000000,  0.1958588900000000,  0.3750000000000000 ]
  mass: 30.973762
- symbol: P  # 38
  position: [  0.5000000000000000,  0.1958588900000000,  0.3750000000000000 ]
  mass: 30.973762
- symbol: P  # 39
  position: [  0.0000000000000000,  0.1958588900000000,  0.8750000000000000 ]
  mass: 30.973762
- symbol: P  # 40
  position: [  0.5000000000000000,  0.1958588900000000,  0.8750000000000000 ]
  mass: 30.973762
- symbol: P  # 41
  position: [  0.0000000000000000,  0.8041411100000000,  0.1250000000000000 ]
  mass: 30.973762
- symbol: P  # 42
  position: [  0.5000000000000000,  0.8041411100000000,  0.1250000000000000 ]
  mass: 30.973762
- symbol: P  # 43
  position: [  0.0000000000000000,  0.8041411100000000,  0.6250000000000000 ]
  mass: 30.973762
- symbol: P  # 44
  position: [  0.5000000000000000,  0.8041411100000000,  0.6250000000000000 ]
  mass: 30.973762
- symbol: P  # 45
  position: [  0.1905583450000000,  0.5571158400000000,  0.2612763850000000 ]
  mass: 30.973762
- symbol: P  # 46
  position: [  0.6905583450000000,  0.5571158400000000,  0.2612763850000000 ]
  mass: 30.973762
- symbol: P  # 47
  position: [  0.1905583450000000,  0.5571158400000000,  0.7612763849999999 ]
  mass: 30.973762
- symbol: P  # 48
  position: [  0.6905583450000000,  0.5571158400000000,  0.7612763849999999 ]
  mass: 30.973762
- symbol: Cl # 49
  position: [  0.2500000000000000,  0.1292097300000000,  0.3750000000000000 ]
  mass: 35.453000
- symbol: Cl # 50
  position: [  0.7500000000000000,  0.1292097300000000,  0.3750000000000000 ]
  mass: 35.453000
- symbol: Cl # 51
  position: [  0.2500000000000000,  0.1292097300000000,  0.8750000000000000 ]
  mass: 35.453000
- symbol: Cl # 52
  position: [  0.7500000000000000,  0.1292097300000000,  0.8750000000000000 ]
  mass: 35.453000
- symbol: Cl # 53
  position: [  0.2500000000000000,  0.8707902700000000,  0.1250000000000000 ]
  mass: 35.453000
- symbol: Cl # 54
  position: [  0.7500000000000000,  0.8707902700000000,  0.1250000000000000 ]
  mass: 35.453000
- symbol: Cl # 55
  position: [  0.2500000000000000,  0.8707902700000000,  0.6250000000000000 ]
  mass: 35.453000
- symbol: Cl # 56
  position: [  0.7500000000000000,  0.8707902700000000,  0.6250000000000000 ]
  mass: 35.453000
- symbol: Cl # 57
  position: [  0.0000000000000000,  0.6292097300000000,  0.3750000000000000 ]
  mass: 35.453000
- symbol: Cl # 58
  position: [  0.5000000000000000,  0.6292097300000000,  0.3750000000000000 ]
  mass: 35.453000
- symbol: Cl # 59
  position: [  0.0000000000000000,  0.6292097300000000,  0.8750000000000000 ]
  mass: 35.453000
- symbol: Cl # 60
  position: [  0.5000000000000000,  0.6292097300000000,  0.8750000000000000 ]
  mass: 35.453000
- symbol: Cl # 61
  position: [  0.0000000000000000,  0.3707902700000000,  0.1250000000000000 ]
  mass: 35.453000
- symbol: Cl # 62
  position: [  0.5000000000000000,  0.3707902700000000,  0.1250000000000000 ]
  mass: 35.453000
- symbol: Cl # 63
  position: [  0.0000000000000000,  0.3707902700000000,  0.6250000000000000 ]
  mass: 35.453000
- symbol: Cl # 64
  position: [  0.5000000000000000,  0.3707902700000000,  0.6250000000000000 ]
  mass: 35.453000
- symbol: Hg # 65
  position: [  0.3637600350000000,  0.8635701800000000,  0.3350486600000000 ]
  mass: 200.590000
- symbol: Hg # 66
  position: [  0.8637600350000000,  0.8635701800000000,  0.3350486600000000 ]
  mass: 200.590000
- symbol: Hg # 67
  position: [  0.3637600350000000,  0.8635701800000000,  0.8350486600000000 ]
  mass: 200.590000
- symbol: Hg # 68
  position: [  0.8637600350000000,  0.8635701800000000,  0.8350486600000000 ]
  mass: 200.590000
- symbol: Hg # 69
  position: [  0.1362399650000000,  0.8635701800000000,  0.4149513400000000 ]
  mass: 200.590000
- symbol: Hg # 70
  position: [  0.6362399650000000,  0.8635701800000000,  0.4149513400000000 ]
  mass: 200.590000
- symbol: Hg # 71
  position: [  0.1362399650000000,  0.8635701800000000,  0.9149513400000000 ]
  mass: 200.590000
- symbol: Hg # 72
  position: [  0.6362399650000000,  0.8635701800000000,  0.9149513400000000 ]
  mass: 200.590000
- symbol: Hg # 73
  position: [  0.3637600350000000,  0.1364298200000000,  0.0850486600000000 ]
  mass: 200.590000
- symbol: Hg # 74
  position: [  0.8637600350000000,  0.1364298200000000,  0.0850486600000000 ]
  mass: 200.590000
- symbol: Hg # 75
  position: [  0.3637600350000000,  0.1364298200000000,  0.5850486600000000 ]
  mass: 200.590000
- symbol: Hg # 76
  position: [  0.8637600350000000,  0.1364298200000000,  0.5850486600000000 ]
  mass: 200.590000
- symbol: Hg # 77
  position: [  0.1362399650000000,  0.1364298200000000,  0.1649513400000000 ]
  mass: 200.590000
- symbol: Hg # 78
  position: [  0.6362399650000000,  0.1364298200000000,  0.1649513400000000 ]
  mass: 200.590000
- symbol: Hg # 79
  position: [  0.1362399650000000,  0.1364298200000000,  0.6649513400000000 ]
  mass: 200.590000
- symbol: Hg # 80
  position: [  0.6362399650000000,  0.1364298200000000,  0.6649513400000000 ]
  mass: 200.590000
- symbol: Hg # 81
  position: [  0.1137600350000000,  0.3635701800000000,  0.3350486600000000 ]
  mass: 200.590000
- symbol: Hg # 82
  position: [  0.6137600350000000,  0.3635701800000000,  0.3350486600000000 ]
  mass: 200.590000
- symbol: Hg # 83
  position: [  0.1137600350000000,  0.3635701800000000,  0.8350486600000000 ]
  mass: 200.590000
- symbol: Hg # 84
  position: [  0.6137600350000000,  0.3635701800000000,  0.8350486600000000 ]
  mass: 200.590000
- symbol: Hg # 85
  position: [  0.3862399650000000,  0.3635701800000000,  0.4149513400000000 ]
  mass: 200.590000
- symbol: Hg # 86
  position: [  0.8862399650000000,  0.3635701800000000,  0.4149513400000000 ]
  mass: 200.590000
- symbol: Hg # 87
  position: [  0.3862399650000000,  0.3635701800000000,  0.9149513400000000 ]
  mass: 200.590000
- symbol: Hg # 88
  position: [  0.8862399650000000,  0.3635701800000000,  0.9149513400000000 ]
  mass: 200.590000
- symbol: Hg # 89
  position: [  0.1137600350000000,  0.6364298200000000,  0.0850486600000000 ]
  mass: 200.590000
- symbol: Hg # 90
  position: [  0.6137600350000000,  0.6364298200000000,  0.0850486600000000 ]
  mass: 200.590000
- symbol: Hg # 91
  position: [  0.1137600350000000,  0.6364298200000000,  0.5850486600000000 ]
  mass: 200.590000
- symbol: Hg # 92
  position: [  0.6137600350000000,  0.6364298200000000,  0.5850486600000000 ]
  mass: 200.590000
- symbol: Hg # 93
  position: [  0.3862399650000000,  0.6364298200000000,  0.1649513400000000 ]
  mass: 200.590000
- symbol: Hg # 94
  position: [  0.8862399650000000,  0.6364298200000000,  0.1649513400000000 ]
  mass: 200.590000
- symbol: Hg # 95
  position: [  0.3862399650000000,  0.6364298200000000,  0.6649513400000000 ]
  mass: 200.590000
- symbol: Hg # 96
  position: [  0.8862399650000000,  0.6364298200000000,  0.6649513400000000 ]
  mass: 200.590000