  96   96
1 1
    13.464546339095840     0.039490740525995    -0.093191499774213
     0.037906000000000    11.299348999999999    -1.309918000000003
    -0.091740450537563    -1.310089975716492    11.384622080730617
1 2
    -0.006957040534182    -0.000367693788006    -0.001545125211167
    -0.000374500000000    -0.005958500000000    -0.002092000000000
    -0.001545670558312    -0.002080939473728    -0.005703010978326
1 3
     0.036973374190558    -0.006647619139972    -0.008159154665815
    -0.006658500000000    -0.003605500000000    -0.021477500000000
    -0.008159193091000    -0.021466406818175     0.013095743714682
1 4
     0.002764102680978     0.005083292767967     0.001148860037253
     0.005076500000000     0.002869500000000    -0.001464000000000
     0.001137713059641    -0.001456483493632    -0.001431053925810
1 5
    -0.002577222642039    -0.000734864393570     0.000083198132401
     0.000748500000000     0.012623500000000     0.005475000000000
     0.000096223946496    -0.005461433370415     0.000943412857241
1 6
    -0.404555845421842    -0.090556166154483    -0.463968440494286
     0.090570000000000     0.292706500000000     0.153592500000000
    -0.463987850219506    -0.153570206385169    -1.150456451268965
1 7
    -0.005231727386606     0.004853213563961    -0.001095839701852
    -0.004838500000000    -0.002401000000000    -0.000801500000000
    -0.001085620316315     0.000814600682344    -0.006325135708620
1 8
    -0.102563097934730    -0.022108109859694    -0.053748723249801
     0.022112000000000    -0.126527500000000    -0.006697500000000
    -0.053736556984591     0.006708799989394    -0.048549817546554
1 9
    -0.017915721711851     0.001528644194285    -0.002112695281966
     0.001536500000000    -0.017570000000000     0.008374500000000
    -0.002111610970726     0.008363534384780    -0.005870757033012
1 10
    -0.057692439942240    -0.012575435651985    -0.038203387374386
    -0.012568500000000     0.001717500000000    -0.046793500000000
    -0.038192869951281    -0.046809496075674    -0.125515492899490
1 11
    -0.014268540006877     0.008032934095681    -0.004343372339834
     0.008036000000000     0.003603500000000     0.003389000000000
    -0.004333066940555     0.003373759035621     0.003451793797475
1 12
    -8.441404074019697    -3.595057235354471     0.422164506705004
    -3.593856500000000    -3.175872500000000     0.151376500000000
     0.421427821820077     0.151088009004154    -1.114235779877469
1 13
    -0.022104559353259     0.003289621641323    -0.011786156599157
    -0.000201000000000     0.007655500000000     0.021535000000000
    -0.027790523228101     0.013615494965221     0.002261685742729
1 14
     0.011201843899970     0.023213764802015    -0.028362587928194
    -0.002932000000000    -0.031247500000000     0.002876000000000
     0.017780616899357    -0.053300246597952    -0.061401527938913
1 15
    -0.104779561104126    -0.148769088313009    -0.107171345486579
    -0.158420500000000    -0.097403000000000    -0.006445000000000
    -0.112532392770616    -0.113526196384385    -0.232505190813990
1 16
    -0.015832910526162     0.065161212457093    -0.027272189812314
    -0.079818500000000    -0.054391500000000    -0.007216500000000
    -0.009628584063888    -0.033045917292097    -0.023657651979762
1 17
     0.179802283175929     0.087078094052529     0.192578926723909
     0.008208000000000     0.185786000000000    -0.085334000000000
    -0.106536556919813     0.047893936750534     0.194197720113516
1 18
     0.001367212500977    -0.030703896243750    -0.013207941224780
    -0.026494500000000    -0.015408500000000    -0.024818500000000
     0.021392364319817     0.009484229722378    -0.078436574236181
1 19
     0.001753564421017     0.008175783489318    -0.011105724379537
     0.008556000000000     0.019362500000000    -0.012068500000000
    -0.005643382880982     0.002163197309339     0.000677864167365
1 20
     0.006707564378368    -0.005636640535507     0.000977883604540
     0.020300500000000    -0.002418000000000    -0.007203000000000
     0.015058357072924     0.013194158418521    -0.000396905469064
1 21
     0.122752889973335     0.042098017642387     0.133105083176645
    -0.026389000000000     0.031152500000000    -0.099610500000000
    -0.064053390313394    -0.028023771326844    -0.323734079289079
1 22
    -0.005836380749727    -0.006471078607149     0.000351059341113
     0.003810000000000     0.001681000000000     0.003097000000000
     0.002698221951168    -0.005241232149032     0.000872866066838
1 23
     0.122742965505695     0.026377712156136    -0.064064509954935
    -0.042101000000000     0.031155500000000     0.028002000000000
     0.133109562234784     0.099618132142588    -0.323757894486493
1 24
    -0.005833119283656    -0.003814816453822     0.002709694062760
     0.006463500000000     0.001683500000000     0.005233000000000
     0.000339453824895    -0.003109167919654     0.000876615170372
1 25
    -0.004750048555434     0.023248890285319    -0.028773698429639
     0.000515500000000    -0.001206500000000     0.021713500000000
     0.009727873388043    -0.018673500109976     0.034995619662931
1 26
    -0.004755486299822     0.000528740021549     0.009739013949623
     0.023245000000000    -0.001214000000000    -0.018684000000000
    -0.028784841489927     0.021724731126286     0.035003949922257
1 27
    -0.011958176871261     0.004699747591769    -0.009708757670076
     0.008518000000000     0.000396500000000     0.010794000000000
     0.003453840618939     0.000222219176800    -0.006493556386215
1 28
    -0.011956065321245     0.008528950230884     0.003465807374855
     0.004682500000000     0.000397000000000     0.000214500000000
    -0.009717498110255     0.010805859031622    -0.006492956261796
1 29
    -0.152072447570508     0.010631639466299    -0.060777351580098
    -0.010620000000000    -0.010406500000000    -0.023489500000000
    -0.060761971433449     0.023511860135102    -0.039254122611746
1 30
    -0.037848406557513     0.003358946305338     0.000502013664380
    -0.003340000000000    -0.038395000000000     0.030798000000000
     0.000510067184399    -0.030782647920647     0.082897462812984
1 31
    -0.016981692244624    -0.008793401594499    -0.007872257483859
     0.008798000000000     0.000520500000000     0.004354000000000
    -0.007863515610751    -0.004343278701243     0.006084652837321
1 32
    -0.010823307830163     0.019364067081879    -0.011875796430299
    -0.019355000000000    -0.034674000000000    -0.008693500000000
    -0.011864891197467     0.008707001357289    -0.014679950332587
1 33
     0.005697566498532    -0.003092537337031     0.003767885836326
    -0.003085500000000    -0.009936500000000     0.000080000000000
     0.003778656892038     0.000064452420757     0.005938058688802
1 34
    -0.018278928636926     0.006011908833774    -0.000785958908527
     0.006019500000000    -0.004258500000000     0.009905500000000
    -0.000776069543508     0.009890668359013     0.041619985658810
1 35
    -0.019843958775306     0.001977552395730     0.002471761985515
     0.001991500000000     0.030057000000000    -0.003519000000000
     0.002483040766103    -0.003529860277759    -0.032100626812528
1 36
    -0.014357669192899     0.032829177063913     0.008066108048409
     0.032837000000000    -0.018914500000000    -0.032019000000000
     0.008077219835194    -0.032032721691197    -0.027965643101102
1 37
     0.004402462521226    -0.006262707321161     0.005620174594952
    -0.004579500000000     0.004536000000000    -0.003775500000000
     0.001169207934133    -0.008836844002220     0.001240860530194
1 38
    -0.003495648374008     0.032888581771912     0.024500566514254
     0.019816000000000    -0.039419000000000    -0.064801000000000
    -0.028916738597022     0.159848853415396     0.027563247826487
1 39
     0.004564945076023    -0.007813447822855     0.008792363193705
    -0.005865000000000    -0.002360500000000    -0.008663000000000
    -0.006483079907145     0.004056375016721    -0.005263630565566
1 40
     0.414719137038892     0.116250253436638     0.157148444234831
    -0.385756500000000    -0.361901000000000     0.274371500000000
     0.572641036497797     0.557373444284051    -0.345506821914634
1 41
     0.000417383463971    -0.002035131793681     0.005267669294857
    -0.004064000000000    -0.016292000000000    -0.003108000000000
    -0.016778686436451     0.010737134203534     0.006124662728660
1 42
    -2.076540546824093     1.098936657849005    -1.450135115012428
     1.622135500000001    -3.540833000000000     3.385701500000001
    -1.699182562025593     2.658440506620112    -5.303812076382155
1 43
     0.000201044171757    -0.001033088829875    -0.001251152812130
     0.004736000000000     0.001920000000000     0.004248000000000
    -0.004065094300160     0.001351442339047     0.000423207009162
1 44
     0.016001614199550     0.033064261056476     0.006951416086687
    -0.023301500000000     0.030418000000000     0.014305000000000
     0.025817243704854     0.000744005842483    -0.015286177840814
1 45
     0.021273286693358    -0.031731980169375     0.037169624173619
    -0.006998000000000    -0.020446000000000     0.000306000000000
     0.040134409383313    -0.000611161749444     0.021651819753674
1 46
    -0.017510805765536     0.001782787813489    -0.018751882968166
     0.007475500000000     0.022900500000000     0.016675000000000
     0.022779442555145    -0.009199963660866     0.021257706034141
1 47
    -0.017515174104622    -0.007483556165362     0.022786865879909
    -0.001781500000000     0.022897500000000     0.009187000000000
    -0.018763903739204    -0.016681474322608     0.021256048922215
1 48
     0.021275865795886     0.006989874205057     0.040145740380506
     0.031726000000000    -0.020452500000000     0.000604000000000
     0.037159076023445    -0.000317123925347     0.021650714451828
1 49
    -0.005155804870040    -0.006135179111176    -0.001067905005797
     0.000641500000000     0.000204500000000     0.009107500000000
     0.012523077714661    -0.002052769494078     0.012167857890411
1 50
    -0.014080263073503    -0.011562127149887    -0.006579049081192
    -0.001411000000000    -0.004286000000000     0.005003000000000
    -0.029151672650515    -0.012872685166634    -0.016088092849540
1 51
    -0.036002306763644     0.028586716139069    -0.080886688410730
     0.117920500000000    -0.069307000000000     0.063735000000000
    -0.100180826882477     0.033853979299456    -0.125351465805589
1 52
    -0.041063998941761    -0.019685610588795     0.037294029478551
     0.106467500000000     0.076282500000000    -0.053466000000000
     0.042506535772084     0.033281434472337    -0.018885877457719
1 53
    -0.132911987218777    -0.122309736924479     0.029231868488364
    -0.138020500000000    -0.125518000000000     0.061865000000000
     0.028554062846150     0.050667510814699    -0.019625733455891
1 54
    -0.043127955710169     0.004574466806552    -0.017846939774679
     0.007557500000000     0.011902500000000     0.043274000000000
     0.023423748593477     0.054499392412698     0.011047843831774
1 55
     0.004137997520561     0.007334176984251     0.010831722052188
     0.030145000000000    -0.001104500000000     0.036881000000000
    -0.018356787305075     0.009099878829003    -0.058998624681264
1 56
    -0.001839445279228    -0.003260148474561    -0.015474591769318
    -0.022170500000000     0.005359000000000    -0.008323000000000
    -0.020493148178637    -0.001140396065287    -0.038620901632496
1 57
    -0.021564463101060     0.004492119772404    -0.003302528471350
    -0.001704000000000    -0.000277500000000     0.001589000000000
    -0.012537528592030     0.004278267579862     0.000880174216844
1 58
     0.014171835793776     0.009485897842008     0.066996116917098
    -0.000971000000000     0.004977500000000     0.002244000000000
     0.002249747523655     0.023111152626389     0.029271739119134
1 59
    -0.004967483774365     0.002350624100565    -0.000942042188627
     0.011839000000000     0.003168000000000    -0.002467000000000
     0.001218213320835     0.003529066213292     0.000488038661445
1 60
    -0.093488720897192     0.102043916225048     0.053488685377659
     0.104056500000000    -0.165521500000000    -0.074497500000000
     0.066758028338231    -0.013391492897868    -0.010100380986851
1 61
    -0.008908670244031    -0.010534757495239    -0.009743496632955
     0.009160000000000    -0.007106000000000     0.005112500000000
    -0.015981998825414     0.006910712961175     0.002920663801376
1 62
    -0.065106634662466    -0.075313801403489    -0.021777024302619
    -0.122274000000000    -0.295719000000000    -0.101815000000000
    -0.010402393776133    -0.194887256342283    -0.040320628452534
1 63
    -0.006218952626026    -0.001774765431816    -0.005618321834979
     0.002225500000000     0.000195500000000     0.004728500000000
    -0.004035162507053    -0.001485448318054    -0.008906491632523
1 64
     0.007718697485544    -0.006587113912460    -0.024988161412859
    -0.009953000000000    -0.008186000000000     0.012554500000000
     0.020493421481101    -0.005244528265050    -0.031694511497355
1 65
    -0.016020719197890    -0.031060184861248    -0.016552901529360
     0.006021000000000    -0.003215000000000    -0.012658500000000
    -0.054040009717259    -0.018322883727366    -0.031542425225105
1 66
     0.013870941217046     0.001375177042728     0.002764459972713
    -0.002629500000000    -0.001299000000000    -0.007424500000000
     0.019189449794286     0.005004131612857     0.000199928996388
1 67
    -0.051305953067167    -0.085439760045570    -0.462021157746300
    -0.116165500000000    -0.100071000000000    -0.688721500000000
    -0.301946632855847    -0.296180355666560    -0.802619980717158
1 68
    -0.001755168694229    -0.006081530493214     0.000291198817114
    -0.006999500000000     0.000730000000000     0.004776000000000
     0.004438514226633    -0.003501716697970     0.011250562531808
1 69
     0.014612837257334    -0.002120314696708     0.002300570794350
     0.003837500000000    -0.001900500000000    -0.002152500000000
     0.005069020239414     0.004207343546743     0.003306501603134
1 70
     0.000383802723766    -0.034495579110136     0.077483236421241
     0.012251500000000    -0.001217500000000     0.020522500000000
     0.061336753780034    -0.038152106729896     0.169262882045609
1 71
    -0.010638744472468    -0.018888358544849    -0.003748115024599
    -0.008089000000000     0.002854500000000     0.011324500000000
    -0.013866220993680    -0.001308183911189     0.004236510247430
1 72
    -0.388565239234173    -0.011560692651040     0.131879458178206
     0.277824000000000     0.354694000000000     0.086008000000000
     0.278887963153752     0.106150865871729    -0.031427854782473
1 73
    -2.167041461078078     2.441844213281125     1.694563253409976
     2.183032499999999    -3.648181000000000    -2.137146500000000
     1.635187457231764    -2.065674657040868    -1.908908276269463
1 74
     0.017503995268365     0.000052319373963     0.003885522374044
     0.000941000000000    -0.006783500000000    -0.004163000000000
     0.007242954818002    -0.011033160442945     0.002371646258648
1 75
     0.009609292890127     0.004446777815442     0.030915567148610
     0.004408000000000     0.000309000000000    -0.001152000000000
    -0.007553641451993     0.013084580282029     0.003282749326664
1 76
     0.003951199999544     0.000251662390372     0.000067081632172
    -0.003466500000000     0.000202500000000    -0.001933000000000
     0.012047617130918     0.001806803295132     0.007603941811157
1 77
    -0.002883248107649     0.009898812633797     0.003061273821946
     0.011762000000000    -0.030846000000000    -0.016227000000000
     0.027438287180230     0.020495869407055    -0.003890597913493
1 78
    -0.063636900845381     0.028433773068368    -0.054646257455682
    -0.085039500000000    -0.019546500000000    -0.015824500000000
     0.019400996559695     0.072705873112565     0.156580481081622
1 79
     0.003233644767823     0.005169794024286    -0.006972451648477
    -0.012733000000000     0.005188000000000     0.002256500000000
     0.000977357566935    -0.010679723467982     0.001610708030384
1 80
    -0.017352696678940     0.011987431466547     0.025484209508076
     0.015002000000000     0.016189000000000     0.030948500000000
     0.018613084111526     0.020933161229868     0.053615579426960
1 81
     0.011400430568401     0.026014687001884    -0.004079236224000
    -0.006595000000000     0.002094500000000    -0.010162500000000
     0.004442914561015     0.010208444947084    -0.001037637270207
1 82
    -0.023069017393871     0.004772071181872     0.001984107526761
     0.018197500000000     0.007444500000000     0.006025000000000
     0.014806929733836     0.033622475323661     0.013023198557498
1 83
    -0.005798297930555     0.012899726198371    -0.010759531901484
    -0.021170000000000     0.001777500000000     0.002221500000000
     0.010465184619094    -0.000794439470244    -0.002720773213324
1 84
    -0.168744850895815    -0.011877555921349    -0.125775040067821
     0.064144500000000    -0.007306500000000     0.076269500000000
    -0.070494411271600    -0.020730160359138    -0.089213157179073
1 85
    -0.012679789566203     0.011804116676838    -0.025892268850352
    -0.016903000000000    -0.001557500000000    -0.012133000000000
    -0.019558253505168     0.012924686466921    -0.010651912566625
1 86
     0.015862136498209    -0.005991058609429     0.009724823667985
    -0.003975000000000     0.004243000000000    -0.006133500000000
     0.014698479942609     0.010220776527653    -0.019974727729297
1 87
     0.097330340671818     0.056132856829934    -0.063024658151070
     0.033288000000000    -0.121958500000000     0.058451500000000
    -0.036923689456347    -0.013457636414038     0.024198756217600
1 88
     0.005653118878160    -0.002728371066116    -0.014807311864745
    -0.016592500000000    -0.005329500000000     0.010669500000000
    -0.001749241410958    -0.002306308019796     0.008009558350952
1 89
     0.012586152082875    -0.015896942316763     0.015722256678782
     0.013313000000000     0.034508000000000     0.011010500000000
     0.006794356963896     0.010550306823624    -0.004547582711924
1 90
    -0.018019397792148     0.101667533014526    -0.189120055698702
    -0.023095500000000    -0.082478500000000     0.138569000000000
    -0.185450483525150     0.112923455265436     0.136009200167803
1 91
     0.005815060001168    -0.008283448634260     0.001962762283488
    -0.009571500000000    -0.004784500000000    -0.005877000000000
     0.004428444181986     0.004221211240534     0.003654352783831
1 92
    -0.015106128380888    -0.005392604503845     0.005933817182669
     0.006058500000000    -0.008607000000000     0.009780500000000
    -0.006942931155651    -0.020602557058917     0.027947269249868
1 93
     0.366453823923318    -0.094593740371099     0.389374102580386
     0.028604000000000    -0.131004500000000     0.141832500000000
     0.117811159177342     0.144668042407595    -0.033846575965242
1 94
     0.015439929986436    -0.003316751733124    -0.011046769856560
    -0.013344500000000     0.007244500000000    -0.019550000000000
     0.011802618923355    -0.010699833903267    -0.024663404234030
1 95
    -0.001799225897003    -0.000449091364956     0.004970651583900
     0.012041000000000    -0.031670000000000    -0.040339500000000
    -0.029638254182368     0.028149364202395     0.015021570515138
1 96
     0.006192946424644    -0.004063216216788     0.006219242860771
    -0.000288000000000    -0.006662500000000    -0.002106500000000
     0.010761957888800    -0.008196911103032     0.005802743186821
2 1
    -0.006957040534182    -0.000367693788006    -0.001545125211167
    -0.000374500000000    -0.005958500000000    -0.002092000000000
    -0.001545670558312    -0.002080939473728    -0.005703010978326
2 2
    13.464546339095840     0.039490740525995    -0.093191499774213
     0.037906000000000    11.299348999999999    -1.309918000000003
    -0.091740450537563    -1.310089975716492    11.384622080730617
2 3
     0.002764102680978     0.005083292767967     0.001148860037253
     0.005076500000000     0.002869500000000    -0.001464000000000
     0.001137713059641    -0.001456483493632    -0.001431053925810
2 4
     0.036973374190558    -0.006647619139972    -0.008159154665815
    -0.006658500000000    -0.003605500000000    -0.021477500000000
    -0.008159193091000    -0.021466406818175     0.013095743714682
2 5
    -0.404555845421842    -0.090556166154483    -0.463968440494286
     0.090570000000000     0.292706500000000     0.153592500000000
    -0.463987850219506    -0.153570206385169    -1.150456451268965
2 6
    -0.002577222642039    -0.000734864393570     0.000083198132401
     0.000748500000000     0.012623500000000     0.005475000000000
     0.000096223946496    -0.005461433370415     0.000943412857241
2 7
    -0.102563097934730    -0.022108109859694    -0.053748723249801
     0.022112000000000    -0.126527500000000    -0.006697500000000
    -0.053736556984591     0.006708799989394    -0.048549817546554
2 8
    -0.005231727386606     0.004853213563961    -0.001095839701852
    -0.004838500000000    -0.002401000000000    -0.000801500000000
    -0.001085620316315     0.000814600682344    -0.006325135708620
2 9
    -0.057692439942240    -0.012575435651985    -0.038203387374386
    -0.012568500000000     0.001717500000000    -0.046793500000000
    -0.038192869951281    -0.046809496075674    -0.125515492899490
2 10
    -0.017915721711851     0.001528644194285    -0.002112695281966
     0.001536500000000    -0.017570000000000     0.008374500000000
    -0.002111610970726     0.008363534384780    -0.005870757033012
2 11
    -8.441404074019697    -3.595057235354471     0.422164506705004
    -3.593856500000000    -3.175872500000000     0.151376500000000
     0.421427821820077     0.151088009004154    -1.114235779877469
2 12
    -0.014268540006877     0.008032934095681    -0.004343372339834
     0.008036000000000     0.003603500000000     0.003389000000000
    -0.004333066940555     0.003373759035621     0.003451793797475
2 13
     0.011201843899970     0.023213764802015    -0.028362587928194
    -0.002932000000000    -0.031247500000000     0.002876000000000
     0.017780616899357    -0.053300246597952    -0.061401527938913
2 14
    -0.022104559353259     0.003289621641323    -0.011786156599157
    -0.000201000000000     0.007655500000000     0.021535000000000
    -0.027790523228101     0.013615494965221     0.002261685742729
2 15
    -0.015832910526162     0.065161212457093    -0.027272189812314
    -0.079818500000000    -0.054391500000000    -0.007216500000000
    -0.009628584063888    -0.033045917292097    -0.023657651979762
2 16
    -0.104779561104126    -0.148769088313009    -0.107171345486579
    -0.158420500000000    -0.097403000000000    -0.006445000000000
    -0.112532392770616    -0.113526196384385    -0.232505190813990
2 17
     0.001367212500977    -0.030703896243750    -0.013207941224780
    -0.026494500000000    -0.015408500000000    -0.024818500000000
     0.021392364319817     0.009484229722378    -0.078436574236181
2 18
     0.179802283175929     0.087078094052529     0.192578926723909
     0.008208000000000     0.185786000000000    -0.085334000000000
    -0.106536556919813     0.047893936750534     0.194197720113516
2 19
     0.006707564378368    -0.005636640535507     0.000977883604540
     0.020300500000000    -0.002418000000000    -0.007203000000000
     0.015058357072924     0.013194158418521    -0.000396905469064
2 20
     0.001753564421017     0.008175783489318    -0.011105724379537
     0.008556000000000     0.019362500000000    -0.012068500000000
    -0.005643382880982     0.002163197309339     0.000677864167365
2 21
    -0.005836380749727    -0.006471078607149     0.000351059341113
     0.003810000000000     0.001681000000000     0.003097000000000
     0.002698221951168    -0.005241232149032     0.000872866066838
2 22
     0.122752889973335     0.042098017642387     0.133105083176645
    -0.026389000000000     0.031152500000000    -0.099610500000000
    -0.064053390313394    -0.028023771326844    -0.323734079289079
2 23
    -0.005833119283656    -0.003814816453822     0.002709694062760
     0.006463500000000     0.001683500000000     0.005233000000000
     0.000339453824895    -0.003109167919654     0.000876615170372
2 24
     0.122742965505695     0.026377712156136    -0.064064509954935
    -0.042101000000000     0.031155500000000     0.028002000000000
     0.133109562234784     0.099618132142588    -0.323757894486493
2 25
    -0.004755486299822     0.000528740021549     0.009739013949623
     0.023245000000000    -0.001214000000000    -0.018684000000000
    -0.028784841489927     0.021724731126286     0.035003949922257
2 26
    -0.004750048555434     0.023248890285319    -0.028773698429639
     0.000515500000000    -0.001206500000000     0.021713500000000
     0.009727873388043    -0.018673500109976     0.034995619662931
2 27
    -0.011956065321245     0.008528950230884     0.003465807374855
     0.004682500000000     0.000397000000000     0.000214500000000
    -0.009717498110255     0.010805859031622    -0.006492956261796
2 28
    -0.011958176871261     0.004699747591769    -0.009708757670076
     0.008518000000000     0.000396500000000     0.010794000000000
     0.003453840618939     0.000222219176800    -0.006493556386215
2 29
    -0.037848406557513     0.003358946305338     0.000502013664380
    -0.003340000000000    -0.038395000000000     0.030798000000000
     0.000510067184399    -0.030782647920647     0.082897462812984
2 30
    -0.152072447570508     0.010631639466299    -0.060777351580098
    -0.010620000000000    -0.010406500000000    -0.023489500000000
    -0.060761971433449     0.023511860135102    -0.039254122611746
2 31
    -0.010823307830163     0.019364067081879    -0.011875796430299
    -0.019355000000000    -0.034674000000000    -0.008693500000000
    -0.011864891197467     0.008707001357289    -0.014679950332587
2 32
    -0.016981692244624    -0.008793401594499    -0.007872257483859
     0.008798000000000     0.000520500000000     0.004354000000000
    -0.007863515610751    -0.004343278701243     0.006084652837321
2 33
    -0.018278928636926     0.006011908833774    -0.000785958908527
     0.006019500000000    -0.004258500000000     0.009905500000000
    -0.000776069543508     0.009890668359013     0.041619985658810
2 34
     0.005697566498532    -0.003092537337031     0.003767885836326
    -0.003085500000000    -0.009936500000000     0.000080000000000
     0.003778656892038     0.000064452420757     0.005938058688802
2 35
    -0.014357669192899     0.032829177063913     0.008066108048409
     0.032837000000000    -0.018914500000000    -0.032019000000000
     0.008077219835194    -0.032032721691197    -0.027965643101102
2 36
    -0.019843958775306     0.001977552395730     0.002471761985515
     0.001991500000000     0.030057000000000    -0.003519000000000
     0.002483040766103    -0.003529860277759    -0.032100626812528
2 37
    -0.003495648374008     0.032888581771912     0.024500566514254
     0.019816000000000    -0.039419000000000    -0.064801000000000
    -0.028916738597022     0.159848853415396     0.027563247826487
2 38
     0.004402462521226    -0.006262707321161     0.005620174594952
    -0.004579500000000     0.004536000000000    -0.003775500000000
     0.001169207934133    -0.008836844002220     0.001240860530194
2 39
     0.414719137038892     0.116250253436638     0.157148444234831
    -0.385756500000000    -0.361901000000000     0.274371500000000
     0.572641036497797     0.557373444284051    -0.345506821914634
2 40
     0.004564945076023    -0.007813447822855     0.008792363193705
    -0.005865000000000    -0.002360500000000    -0.008663000000000
    -0.006483079907145     0.004056375016721    -0.005263630565566
2 41
    -2.076540546824093     1.098936657849005    -1.450135115012428
     1.622135500000001    -3.540833000000000     3.385701500000001
    -1.699182562025593     2.658440506620112    -5.303812076382155
2 42
     0.000417383463971    -0.002035131793681     0.005267669294857
    -0.004064000000000    -0.016292000000000    -0.003108000000000
    -0.016778686436451     0.010737134203534     0.006124662728660
2 43
     0.016001614199550     0.033064261056476     0.006951416086687
    -0.023301500000000     0.030418000000000     0.014305000000000
     0.025817243704854     0.000744005842483    -0.015286177840814
2 44
     0.000201044171757    -0.001033088829875    -0.001251152812130
     0.004736000000000     0.001920000000000     0.004248000000000
    -0.004065094300160     0.001351442339047     0.000423207009162
2 45
    -0.017510805765536     0.001782787813489    -0.018751882968166
     0.007475500000000     0.022900500000000     0.016675000000000
     0.022779442555145    -0.009199963660866     0.021257706034141
2 46
     0.021273286693358    -0.031731980169375     0.037169624173619
    -0.006998000000000    -0.020446000000000     0.000306000000000
     0.040134409383313    -0.000611161749444     0.021651819753674
2 47
     0.021275865795886     0.006989874205057     0.040145740380506
     0.031726000000000    -0.020452500000000     0.000604000000000
     0.037159076023445    -0.000317123925347     0.021650714451828
2 48
    -0.017515174104622    -0.007483556165362     0.022786865879909
    -0.001781500000000     0.022897500000000     0.009187000000000
    -0.018763903739204    -0.016681474322608     0.021256048922215
2 49
    -0.014080263073503    -0.011562127149887    -0.006579049081192
    -0.001411000000000    -0.004286000000000     0.005003000000000
    -0.029151672650515    -0.012872685166634    -0.016088092849540
2 50
    -0.005155804870040    -0.006135179111176    -0.001067905005797