96   
20   

1    
  0.0099995753073327   0.0000000000000000  -0.0000921611251181
  -0.1325075300    0.0372231400   -0.0188832400
   0.0036048100    0.0389256200   -0.0208727900
   0.0031617100    0.0389869500   -0.0208068200
   0.0035075500    0.0388712100   -0.0208994500
  -0.0035102100    0.0389279500    0.0208873600
   0.0004685900    0.0398022900    0.0254237000
  -0.0034837000    0.0388738400    0.0208983200
  -0.0025090700    0.0391413600    0.0214262900
  -0.0033560400   -0.0389372400    0.0209087000
  -0.0029604700   -0.0387978700    0.0212606200
  -0.0033932300   -0.0390023600    0.0209319900
   0.0823648700   -0.0020628900    0.0162988600
   0.0002155700   -0.0141833200    0.0001195600
  -0.0001112900   -0.0143907900    0.0002782800
   0.0010352900   -0.0126820200    0.0010498500
   0.0001652000   -0.0148197100    0.0002713900
  -0.0018309600    0.0133193600   -0.0018964700
  -0.0000092300    0.0144636200    0.0001222400
  -0.0000177100    0.0140721700    0.0001109900
  -0.0000654100    0.0142109600   -0.0000113300
   0.0023040300   -0.0393464900   -0.0222592400
   0.0035943000   -0.0388573000   -0.0208909600
   0.0023245300   -0.0391634100   -0.0202575100
   0.0035944800   -0.0388843800   -0.0209146400
   0.0035789100    0.0386923600   -0.0205905600
   0.0035830000    0.0389157700   -0.0209873100
   0.0036553000    0.0388750100   -0.0207914100
   0.0036540500    0.0388377500   -0.0209232000
  -0.0020336200    0.0388180500    0.0214945900
  -0.0031550100    0.0388857800    0.0208904200
  -0.0033651000    0.0390112500    0.0209686200
  -0.0034297400    0.0387293300    0.0210060000
  -0.0035914300   -0.0388919600    0.0208504000
  -0.0033526700   -0.0389820500    0.0209006600
  -0.0033366800   -0.0389433300    0.0208600700
  -0.0033906200   -0.0392557300    0.0208029200
  -0.0000444800   -0.0140909100   -0.0000550400
   0.0000310500   -0.0144662300   -0.0002376700
  -0.0000460400   -0.0140753100   -0.0000885800
  -0.0041004900   -0.0152750300   -0.0016255600
  -0.0000046300    0.0141752100   -0.0000522600
   0.0205989500    0.0034151900    0.0140607200
  -0.0000018100    0.0141634900    0.0000118900
  -0.0001582500    0.0138216700   -0.0000729700
   0.0033310100   -0.0386044100   -0.0212550600
   0.0037142400   -0.0389422300   -0.0206963400
   0.0037077600   -0.0388505400   -0.0211128400
   0.0033286800   -0.0389912700   -0.0212878800
   0.0000529300    0.0050803300    0.0000114100
   0.0001384600    0.0051337900    0.0000634400
   0.0003512700    0.0047360200    0.0007959500
   0.0004197700    0.0052215900   -0.0003771400
   0.0013299400   -0.0038036800   -0.0002956000
   0.0004329300   -0.0050579900    0.0001786200
  -0.0000417600   -0.0050918900   -0.0001102100
   0.0000163200   -0.0049865700    0.0001517900
   0.0002149600    0.0049746800    0.0000329400
  -0.0001421200    0.0049263500   -0.0006681100
   0.0000508100    0.0049960600    0.0000081000
   0.0009416100    0.0039939600   -0.0005381600
   0.0000878800   -0.0049124700    0.0000988700
   0.0006457300   -0.0042894100    0.0002130000
   0.0000622100   -0.0050015300    0.0000560900
  -0.0000759000   -0.0049527900    0.0002457300
  -0.0028359300    0.0176877800    0.0261430600
  -0.0031289900    0.0173651300    0.0259504100
  -0.0024895900    0.0182105100    0.0305145400
  -0.0029745600    0.0174390700    0.0259768100
   0.0028462100    0.0174001900   -0.0260009100
   0.0029935600    0.0177205100   -0.0267404500
   0.0030935000    0.0175655900   -0.0259415000
   0.0069488700    0.0175115400   -0.0273241800
   0.0187369100   -0.0416841600    0.0090572800
  -0.0031673300   -0.0173796700    0.0259392800
  -0.0030892600   -0.0174211000    0.0256649900
  -0.0030306700   -0.0173810900    0.0259781000
   0.0030215100   -0.0174704200   -0.0260089000
   0.0036376900   -0.0176515800   -0.0254070100
   0.0029580700   -0.0174313300   -0.0259092800
   0.0031677400   -0.0174971400   -0.0262296000
  -0.0031060000    0.0171191900    0.0260184700
  -0.0027589400    0.0173344800    0.0259599700
  -0.0029351400    0.0172506900    0.0260857100
  -0.0013056700    0.0174924600    0.0272290300
   0.0031174900    0.0172617300   -0.0257205200
   0.0028339200    0.0174394900   -0.0260780400
   0.0020149200    0.0168139100   -0.0253407000
   0.0029339800    0.0174052800   -0.0258279700
  -0.0031197000   -0.0172207600    0.0258167000
  -0.0028244200   -0.0183966300    0.0278967100
  -0.0030503900   -0.0172957300    0.0259586400
  -0.0028409100   -0.0173265700    0.0259212700
  -0.0006669800   -0.0164320700   -0.0298764000
   0.0028381000   -0.0173467500   -0.0258697100
   0.0030082700   -0.0173729800   -0.0260275500
   0.0029302700   -0.0173386300   -0.0260403400

1    
 -0.0099995753073327   0.0000000000000000   0.0000921611251181
   0.1367888700    0.0382544000   -0.0228454300
   0.0034659600    0.0389186500   -0.0209026400
   0.0039026500    0.0388579600   -0.0209724100
   0.0035626200    0.0389731400   -0.0208762100
  -0.0035617700    0.0389142600    0.0208888500
  -0.0075366600    0.0380195500    0.0163567800
  -0.0035881300    0.0389707500    0.0208775700
  -0.0045503400    0.0386979800    0.0203603100
  -0.0037139500   -0.0389082100    0.0208675300
  -0.0041072300   -0.0390407400    0.0205197200
  -0.0036777900   -0.0388423300    0.0208444900
  -0.0865337200   -0.0739888300    0.0249471700
  -0.0002213800   -0.0141200400   -0.0001165700
   0.0001094600   -0.0139167100   -0.0002776300
  -0.0010394700   -0.0156363500   -0.0010506300
  -0.0001496700   -0.0135104500   -0.0002696700
   0.0017845700    0.0150520200    0.0019191500
   0.0000141700    0.0138478200   -0.0001274500
   0.0000184000    0.0142352800   -0.0001112400
   0.0000659600    0.0140958000    0.0000083000
   0.0047707900   -0.0384994000   -0.0195375800
   0.0034770800   -0.0389857500   -0.0208841000
   0.0047547500   -0.0386542400   -0.0214790700
   0.0034777600   -0.0389601000   -0.0208606100
   0.0034821200    0.0391607600   -0.0211724600
   0.0034932000    0.0389223400   -0.0207989900
   0.0034155100    0.0389689600   -0.0209843800
   0.0034167300    0.0390063300   -0.0208526900
  -0.0050637400    0.0390263400    0.0202863300
  -0.0039120400    0.0389586300    0.0208851800
  -0.0037032700    0.0388361900    0.0208100600
  -0.0036440100    0.0391149900    0.0207712000
  -0.0034781800   -0.0389538200    0.0209246600
  -0.0037180900   -0.0388636400    0.0208772700
  -0.0037340000   -0.0389031300    0.0209154200
  -0.0036792500   -0.0385932700    0.0209693900
   0.0000433500   -0.0142145300    0.0000571300
  -0.0000335300   -0.0138379500    0.0002472400
   0.0000464500   -0.0142323200    0.0000882300
   0.0040879900   -0.0130528600    0.0015809600
   0.0000068100    0.0141325300    0.0000519600
  -0.0206169000    0.0249029800   -0.0139631400
   0.0000029600    0.0141425800   -0.0000132100
   0.0001570100    0.0144827900    0.0000688700
   0.0037490600   -0.0392389100   -0.0205156900
   0.0033598400   -0.0389048800   -0.0210752800
   0.0033609300   -0.0389971300   -0.0206610400
   0.0037473300   -0.0388514200   -0.0204889900
  -0.0000524900    0.0049580100   -0.0000121900
  -0.0001377600    0.0049049300   -0.0000651700
  -0.0003502800    0.0053014900   -0.0007986100
  -0.0004093100    0.0048217600    0.0003721900
  -0.0013334500   -0.0062591100    0.0002926300
  -0.0004339100   -0.0049765500   -0.0001803400
   0.0000443800   -0.0049468900    0.0001172900
  -0.0000166900   -0.0050515600   -0.0001505700
  -0.0002140000    0.0050637300   -0.0000332700
   0.0001408900    0.0051118000    0.0006663600
  -0.0000487600    0.0050424200   -0.0000108300
  -0.0009403900    0.0060372200    0.0005334300
  -0.0000873400   -0.0051244300   -0.0000965300
  -0.0006544300   -0.0057597000   -0.0002150900
  -0.0000614200   -0.0050367500   -0.0000546300
   0.0000746900   -0.0050835600   -0.0002481700
  -0.0031463700    0.0170699800    0.0258178300
  -0.0028551200    0.0173917100    0.0260056600
  -0.0034600100    0.0165563800    0.0214224500
  -0.0030104800    0.0173180900    0.0259805600
   0.0031375200    0.0173570100   -0.0259555100
   0.0029899300    0.0170376600   -0.0252220500
   0.0028832900    0.0171880800   -0.0260172400
  -0.0008735100    0.0172607700   -0.0246809100
  -0.0249034800    0.0075314000    0.0432989600
  -0.0028186000   -0.0173765900    0.0260165500
  -0.0028956900   -0.0173345800    0.0262826700
  -0.0029538700   -0.0173763900    0.0259780400
   0.0029587900   -0.0172762300   -0.0259469600
   0.0023614300   -0.0170963300   -0.0265287500
   0.0030225600   -0.0173259700   -0.0260490200
   0.0028172700   -0.0172612600   -0.0257298200
  -0.0028788200    0.0176375800    0.0259370800
  -0.0032230300    0.0174237200    0.0259972500
  -0.0030530300    0.0175088200    0.0258710300
  -0.0046674300    0.0172587400    0.0247300800
   0.0028675100    0.0174954200   -0.0262363800
   0.0031484400    0.0173177900   -0.0258798700
   0.0039682500    0.0179390000   -0.0266056000
   0.0030473600    0.0173511400   -0.0261255800
  -0.0028692400   -0.0175406300    0.0261319700
  -0.0031506100   -0.0163841800    0.0240894000
  -0.0029349100   -0.0174621700    0.0259972200
  -0.0031417400   -0.0174306200    0.0260347900
   0.0066400700   -0.0183505300   -0.0220830100
   0.0031447100   -0.0174111100   -0.0260860900
   0.0029777500   -0.0173871500   -0.0259309100
   0.0030521400   -0.0174183800   -0.0259170300

1    
  0.0000000000000000   0.0100000000000000   0.0000000000000000
   0.0029971100   -0.0743711900   -0.0085753100
   0.0035395200    0.0389821900   -0.0208665300
   0.0036007700    0.0389577900   -0.0206735300
   0.0034853400    0.0388940700   -0.0208735300
  -0.0035429700    0.0387963700    0.0208328900
  -0.0044521800    0.0359950600    0.0193513600
  -0.0034870600    0.0389468400    0.0208956900
  -0.0037536100    0.0401885200    0.0209564200
  -0.0035505800   -0.0387473600    0.0208046700
  -0.0034106900   -0.0389376100    0.0213555000
  -0.0036152700   -0.0389589800    0.0208535000
   0.0327575800   -0.0070876500    0.0193213600
   0.0000021800   -0.0142297500   -0.0002147000
   0.0000291500   -0.0138416700   -0.0000293500
   0.0015823300   -0.0131797100    0.0000764600
   0.0008034000   -0.0136109800    0.0000747800
  -0.0001256400    0.0123055700    0.0008632200
   0.0002642000    0.0143079700    0.0002448000
  -0.0000858400    0.0139599600    0.0001204300
  -0.0002035700    0.0141773700    0.0000704000
   0.0038026700   -0.0392461800   -0.0198981700
   0.0034974500   -0.0389401600   -0.0209184900
   0.0039617400   -0.0392336000   -0.0211556300
   0.0034717700   -0.0389398800   -0.0209399500
   0.0035303300    0.0389327800   -0.0211038600
   0.0033075600    0.0389308200   -0.0207065200
   0.0034505600    0.0389185900   -0.0209955900
   0.0034888700    0.0389181300   -0.0208901900
  -0.0034312600    0.0390216800    0.0211209700
  -0.0035013400    0.0393066100    0.0205805500
  -0.0036221600    0.0389165300    0.0208441300
  -0.0033430300    0.0392699300    0.0209753700
  -0.0035044000   -0.0388241400    0.0208873300
  -0.0035961300   -0.0388800300    0.0207911800
  -0.0035552700   -0.0392205100    0.0209236700
  -0.0038646300   -0.0387357000    0.0212080300
   0.0000455600   -0.0141987100    0.0000385900
  -0.0001969400   -0.0137538500    0.0006490900
   0.0000580800   -0.0141299200    0.0000863200
   0.0038759300   -0.0105302400   -0.0027489900
   0.0000411300    0.0143165900    0.0000301500
  -0.0160250200    0.0493727500   -0.0333786800
  -0.0000470200    0.0141339200   -0.0000428300
   0.0002322700    0.0138488600   -0.0001439000
   0.0036048700   -0.0387202200   -0.0208910800
   0.0034627600   -0.0391524900   -0.0210511800
   0.0035571700   -0.0391484800   -0.0209821900
   0.0032217700   -0.0387156100   -0.0208960700
  -0.0000066100    0.0050167700   -0.0000913400
   0.0000139700    0.0050609400   -0.0000499800
  -0.0011900800    0.0057193500   -0.0006421200
  -0.0010660300    0.0042557900    0.0005337400
   0.0013768300   -0.0037550700   -0.0006150300
  -0.0000723200   -0.0051354900   -0.0004330700
  -0.0002989300   -0.0050072000   -0.0003620900
   0.0002216400   -0.0050721700    0.0000835300
   0.0000174700    0.0050215300   -0.0000157900
   0.0000090200    0.0049693900   -0.0000193300
  -0.0001170600    0.0049872700    0.0000244600
  -0.0010340700    0.0066635400    0.0007372300
  -0.0000912300   -0.0049466800   -0.0000507200
   0.0012328000   -0.0020455500    0.0010249800
  -0.0000213100   -0.0050203600   -0.0000461900
   0.0000984200   -0.0049371100   -0.0001261100
  -0.0030531600    0.0174099700    0.0261038900
  -0.0029663600    0.0173916700    0.0260515000
  -0.0018466200    0.0184021100    0.0328281400
  -0.0029231200    0.0173714800    0.0259301000
   0.0029528500    0.0173976100   -0.0259575100
   0.0028699500    0.0173887300   -0.0261821600
   0.0030722500    0.0173514700   -0.0260906300
   0.0002116900    0.0138253500   -0.0268439700
  -0.0251987800    0.0194819600    0.0477025600
  -0.0030028100   -0.0173111900    0.0260196100
  -0.0030359900   -0.0173807700    0.0259871700
  -0.0029575500   -0.0173807500    0.0259973700
   0.0028726000   -0.0170690400   -0.0258151600
   0.0038456800   -0.0171850900   -0.0258249200
   0.0031184600   -0.0174304500   -0.0260000700
   0.0028420900   -0.0175407000   -0.0262865700
  -0.0029266700    0.0173577700    0.0260790300
  -0.0031728500    0.0173051100    0.0259165500
  -0.0027798900    0.0173582900    0.0259572900
  -0.0036314400    0.0174571200    0.0252129200
   0.0031608600    0.0173945200   -0.0258566300
   0.0030315200    0.0173362600   -0.0259174200
   0.0026562700    0.0186048700   -0.0265686900
   0.0031579900    0.0174327000   -0.0260834500
  -0.0031263400   -0.0177225300    0.0258683500
  -0.0027612100   -0.0165608100    0.0246159000
  -0.0028975100   -0.0173312300    0.0260358600
  -0.0030518200   -0.0172924800    0.0258796000
   0.0027184300   -0.0160749200   -0.0273753800
   0.0031240400   -0.0174509000   -0.0257824900
   0.0028730500   -0.0170633800   -0.0255758600
   0.0029944300   -0.0173119900   -0.0259577300

1    
  0.0000000000000000  -0.0100000000000000   0.0000000000000000
   0.0037552300    0.1516157900   -0.0347736700
   0.0035320300    0.0388630200   -0.0209083700
   0.0034676000    0.0388856800   -0.0211030800
   0.0035868700    0.0389514600   -0.0209028100
  -0.0035280000    0.0390488400    0.0209423900
  -0.0026407800    0.0418491900    0.0224232100
  -0.0035838300    0.0388988200    0.0208796600
  -0.0033113700    0.0376579700    0.0208224700
  -0.0035198500   -0.0390987600    0.0209721600
  -0.0036620600   -0.0389032600    0.0204196300
  -0.0034545500   -0.0388869100    0.0209212800
  -0.0391195500   -0.0706051000    0.0223488900
  -0.0000018400   -0.0140766400    0.0002160000
  -0.0000294900   -0.0144666200    0.0000281700
  -0.0015860800   -0.0151277700   -0.0000524400
  -0.0007929700   -0.0146988100   -0.0000695500
   0.0000385200    0.0160212900   -0.0008434600
  -0.0002656900    0.0139998000   -0.0002515700
   0.0000852800    0.0143472100   -0.0001209400
   0.0002024400    0.0141290100   -0.0000736600
   0.0032748900   -0.0386231300   -0.0218903800
   0.0035736500   -0.0389065400   -0.0208565500
   0.0031197200   -0.0386104900   -0.0205955900
   0.0036010400   -0.0389062100   -0.0208352900
   0.0035406400    0.0389086500   -0.0206695900
   0.0037724600    0.0389065400   -0.0210802000
   0.0036209200    0.0389265200   -0.0207797100
   0.0035825200    0.0389260700   -0.0208859000
  -0.0036436600    0.0388135500    0.0206511800
  -0.0035681400    0.0385387100    0.0211965100
  -0.0034462000    0.0389269400    0.0209312100
  -0.0037301300    0.0385764500    0.0208015000
  -0.0035661100   -0.0390228700    0.0208889300
  -0.0034757400   -0.0389652000    0.0209892900
  -0.0035154400   -0.0386193700    0.0208532900
  -0.0032078900   -0.0391139900    0.0205676500
  -0.0000460300   -0.0141079900   -0.0000369200
   0.0001993800   -0.0145422300   -0.0006469300
  -0.0000592200   -0.0141771300   -0.0000869400
  -0.0038392000   -0.0177682600    0.0027384400
  -0.0000401500    0.0139907500   -0.0000320100
   0.0164176900   -0.0214439100    0.0343353500
   0.0000477000    0.0141723200    0.0000421300
  -0.0002337600    0.0144572200    0.0001422000
   0.0034649100   -0.0391291400   -0.0208849600
   0.0036122700   -0.0386944800   -0.0207176800
   0.0035215400   -0.0386905300   -0.0207984500
   0.0038562900   -0.0391246600   -0.0208839900
   0.0000062200    0.0050208600    0.0000908100
  -0.0000142500    0.0049752200    0.0000500800
   0.0011683300    0.0043332100    0.0006325800
   0.0010633200    0.0057814400   -0.0005355800
  -0.0013835800   -0.0062654300    0.0006222700
   0.0000788300   -0.0048974400    0.0004324100
   0.0003039700   -0.0050292900    0.0003755300
  -0.0002217700   -0.0049649900   -0.0000829300
  -0.0000166100    0.0050159800    0.0000159900
  -0.0000104000    0.0050689400    0.0000255500
   0.0001197200    0.0050506300   -0.0000248800
   0.0010470600    0.0033531100   -0.0007527200
   0.0000919700   -0.0050888000    0.0000515300
  -0.0012126800   -0.0079599300   -0.0010113200
   0.0000232000   -0.0050164500    0.0000483800
  -0.0001006400   -0.0051008300    0.0001249800
  -0.0029327400    0.0173456700    0.0258507200
  -0.0030189500    0.0173656900    0.0259030100
  -0.0041699300    0.0164006900    0.0190537100
  -0.0030631100    0.0173860800    0.0260256200
   0.0030296000    0.0173596000   -0.0260005600
   0.0031149800    0.0173643800   -0.0257717100
   0.0029104700    0.0174085600   -0.0258641400
   0.0057681700    0.0209192300   -0.0251238100
   0.0184618700   -0.0534816600    0.0049596300
  -0.0029839900   -0.0174468600    0.0259363500
  -0.0029478300   -0.0173745900    0.0259641300
  -0.0030268800   -0.0173767000    0.0259587100
   0.0031078400   -0.0176859600   -0.0261397000
   0.0021448900   -0.0175760200   -0.0261414100
   0.0028638000   -0.0173266900   -0.0259549400
   0.0031421300   -0.0172169200   -0.0256676000
  -0.0030585700    0.0173996600    0.0258757800
  -0.0028089000    0.0174540000    0.0260370500
  -0.0032032900    0.0173938400    0.0260017200
  -0.0023485500    0.0173109900    0.0267383100
   0.0028228000    0.0173633700   -0.0260992900
   0.0029520200    0.0174211200   -0.0260400900
   0.0033220300    0.0161657000   -0.0253996600
   0.0028261400    0.0173261100   -0.0258700600
  -0.0028600800   -0.0170323700    0.0260885600
  -0.0032231200   -0.0182103800    0.0273872800
  -0.0030889400   -0.0174269200    0.0259183200
  -0.0029306500   -0.0174646200    0.0260752100
   0.0032905100   -0.0186950100   -0.0245387300
   0.0028571500   -0.0173060100   -0.0261734900
   0.0031138700   -0.0176967800   -0.0263826500
   0.0029886700   -0.0174452400   -0.0259998600

1    
 -0.0014445211843416   0.0000000000000000   0.0098951179148097
   0.0237522300    0.0523496200   -0.1343810400
   0.0035403300    0.0389422200   -0.0208344600
   0.0036730000    0.0391266900   -0.0210301900
   0.0035278700    0.0389439500   -0.0208722900
  -0.0035397800    0.0389754400    0.0208789300
   0.0005024600    0.0402839600    0.0316881600
  -0.0035318200    0.0389213800    0.0209482600
  -0.0031586600    0.0388273500    0.0212936200
  -0.0035399800   -0.0390031900    0.0209431400
  -0.0032413500   -0.0384796300    0.0220883800
  -0.0035121800   -0.0389446100    0.0208483100
  -0.0199166800   -0.0456245900    0.0325421000
   0.0002441300   -0.0142826600   -0.0000374300
  -0.0001614500   -0.0135894000    0.0005722500
   0.0009552400   -0.0132481200    0.0021437000
   0.0000716800   -0.0137353000    0.0001923100
   0.0012937900    0.0138240300   -0.0016560100
  -0.0002104700    0.0140144700    0.0007532700
   0.0000580300    0.0141434500   -0.0000244800
  -0.0001386700    0.0140127400    0.0000049300
   0.0043579200   -0.0385841300   -0.0174662300
   0.0034997000   -0.0388803900   -0.0208960800
   0.0024148200   -0.0398531400   -0.0178292000
   0.0035233300   -0.0388971700   -0.0208926200
   0.0034284100    0.0391409800   -0.0212770400
   0.0038160400    0.0387014300   -0.0212277600
   0.0034831100    0.0389277700   -0.0208379200
   0.0036134700    0.0388272900   -0.0208189200
  -0.0031566200    0.0386991100    0.0211902700
  -0.0035963700    0.0392331000    0.0200686100
  -0.0034819100    0.0389519500    0.0208165100
  -0.0034346400    0.0388665200    0.0210155400
  -0.0035643500   -0.0389283000    0.0208344900
  -0.0035514600   -0.0390132100    0.0204745800
  -0.0035823000   -0.0388823700    0.0212153800
  -0.0036352300   -0.0385587800    0.0211751300
  -0.0000049500   -0.0140736500   -0.0000037700
   0.0002826600   -0.0156919800   -0.0002368700
   0.0000707300   -0.0142033200    0.0000647300
  -0.0050326500   -0.0194732800    0.0036627300
   0.0001662600    0.0140434200   -0.0000537200
   0.0141644800   -0.0111584700    0.0511014400
   0.0000407300    0.0141377600   -0.0000066200
  -0.0002338100    0.0141931700    0.0001585100
   0.0031674300   -0.0389666700   -0.0210496400
   0.0032835600   -0.0388286800   -0.0211250700
   0.0036954400   -0.0387679500   -0.0210688100
   0.0032056300   -0.0389057000   -0.0210442400
  -0.0001317300    0.0050296200   -0.0001217300
   0.0002707800    0.0051314300    0.0001485100
   0.0009320700    0.0047269700    0.0011191600
  -0.0004736700    0.0046634900    0.0002392500
  -0.0004835400   -0.0057002100    0.0002411800
  -0.0002959700   -0.0055516300   -0.0001346600
   0.0001883400   -0.0050971200    0.0006025900
   0.0001998700   -0.0050106400    0.0003612300
   0.0000930400    0.0049824400   -0.0000140100
  -0.0000022000    0.0048014400   -0.0001906100
  -0.0000177800    0.0049871500   -0.0000063400
  -0.0007919100    0.0052922000    0.0001756800
   0.0001450100   -0.0051019100   -0.0000427700
   0.0000106700   -0.0032022400    0.0003616000
   0.0000316500   -0.0050061200    0.0000807500
  -0.0001940100   -0.0049743100    0.0002780800
  -0.0024775600    0.0175149500    0.0262666300
  -0.0031620000    0.0173306700    0.0259803900
  -0.0001551300    0.0201215500    0.0330834600
  -0.0030389300    0.0174042600    0.0258674600
   0.0029618800    0.0173336800   -0.0260081100
   0.0023789900    0.0177126600   -0.0275661600
   0.0031118500    0.0173660700   -0.0260257700
  -0.0003125100    0.0163246100   -0.0254734600
  -0.0225069300    0.0068413900    0.0474009600
  -0.0030372200   -0.0172693000    0.0259603100
  -0.0029018500   -0.0175014400    0.0259906400
  -0.0031057400   -0.0173961200    0.0259029000
   0.0027153200   -0.0175684500   -0.0259359300
   0.0027120700   -0.0180567000   -0.0275957100
   0.0029857000   -0.0172651700   -0.0260044400
   0.0027807400   -0.0175660800   -0.0264768600
  -0.0030195100    0.0173153700    0.0259825200
  -0.0031725800    0.0170520700    0.0258536300
  -0.0031029500    0.0174042400    0.0259910900
  -0.0025405300    0.0175664000    0.0266692000
   0.0031690600    0.0172677900   -0.0259104500
   0.0028681100    0.0172675000   -0.0257652400
   0.0034959000    0.0175883400   -0.0263079400
   0.0030154600    0.0173957100   -0.0260793200
  -0.0030395900   -0.0175043700    0.0260461900
  -0.0011724800   -0.0183533700    0.0243596100
  -0.0030276000   -0.0174328000    0.0259443100
  -0.0029435600   -0.0171819500    0.0257091200
   0.0023608800   -0.0189564600   -0.0250631200
   0.0028968200   -0.0172769500   -0.0257504200
   0.0032825300   -0.0176578500   -0.0261210900
   0.0028935700   -0.0173039400   -0.0260272000

1    
  0.0014445211843416   0.0000000000000000  -0.0098951179148097
  -0.0169629800    0.0263085400    0.0911925500
   0.0035298400    0.0389021000   -0.0209428600
   0.0034047100    0.0387210700   -0.0207474500
   0.0035424000    0.0389004400   -0.0209039300
  -0.0035304300    0.0388694800    0.0208973600
  -0.0075111900    0.0375063900    0.0102607800
  -0.0035381900    0.0389234800    0.0208262500
  -0.0039258100    0.0390239900    0.0204880900
  -0.0035300100   -0.0388420900    0.0208330600
  -0.0038305200   -0.0393696700    0.0197147700
  -0.0035567100   -0.0389010500    0.0209291700
   0.0128110500   -0.0322482500    0.0092714600
  -0.0002419900   -0.0140227100    0.0000413800
   0.0001580700   -0.0147112900   -0.0005609600
  -0.0009690900   -0.0150650300   -0.0021480100
  -0.0000731300   -0.0145775400   -0.0001970900
  -0.0013340500    0.0145202900    0.0016308400
   0.0002089400    0.0142908700   -0.0007608500
  -0.0000587200    0.0141626400    0.0000210200
   0.0001399600    0.0142901400   -0.0000057500
   0.0027356500   -0.0392603500   -0.0242575500
   0.0035699600   -0.0389654200   -0.0208798200
   0.0046944800   -0.0379578800   -0.0240513600
   0.0035469000   -0.0389476800   -0.0208831000
   0.0036346500    0.0387042600   -0.0205013400
   0.0032601200    0.0391298400   -0.0205631600
   0.0035860100    0.0389185900   -0.0209383800
   0.0034557000    0.0390165000   -0.0209574300
  -0.0039197700    0.0391337000    0.0205890100
  -0.0034769300    0.0386142000    0.0217077200
  -0.0035884700    0.0388914000    0.0209596700
  -0.0036381800    0.0389828900    0.0207593300
  -0.0035060300   -0.0389180900    0.0209411200
  -0.0035140100   -0.0388348400    0.0213005200
  -0.0034758300   -0.0389579400    0.0205729600
  -0.0034339000   -0.0392875600    0.0205983800
   0.0000054700   -0.0142304400    0.0000045500
  -0.0002795100   -0.0126235500    0.0002378300
  -0.0000707600   -0.0141004700   -0.0000648400
   0.0051019100   -0.0087785800   -0.0036289400
  -0.0001670000    0.0142617900    0.0000522700
  -0.0134635300    0.0382778200   -0.0496727500
  -0.0000403000    0.0141674900    0.0000053700
   0.0002308900    0.0141123700   -0.0001640900
   0.0039002400   -0.0388870900   -0.0207285300
   0.0037849600   -0.0390159000   -0.0206502000
   0.0033747000   -0.0390764600   -0.0207139800
   0.0038795500   -0.0389321700   -0.0207317500
   0.0001310000    0.0050067200    0.0001221600
  -0.0002654600    0.0049100800   -0.0001508700
  -0.0009465200    0.0053143600   -0.0011278900
   0.0004861800    0.0053790100   -0.0002422500
   0.0004655400   -0.0043441300   -0.0002316700
   0.0002921900   -0.0044862900    0.0001355400
  -0.0001869000   -0.0049382200   -0.0005963000
  -0.0002003800   -0.0050237900   -0.0003583800
  -0.0000927800    0.0050541300    0.0000129500
   0.0000013800    0.0052314100    0.0001951300
   0.0000206800    0.0050502000    0.0000060400
   0.0007993400    0.0047323700   -0.0001787400
  -0.0001455400   -0.0049347100    0.0000431800
  -0.0000071000   -0.0068415200   -0.0003734400
  -0.0000302400   -0.0050303900   -0.0000792800
   0.0001892600   -0.0050590700   -0.0002769700
  -0.0035007400    0.0172420700    0.0256902200
  -0.0028223100    0.0174257300    0.0259763600
  -0.0059825000    0.0145069100    0.0185342200
  -0.0029460200    0.0173525300    0.0260892700
   0.0030199800    0.0174230700   -0.0259493200
   0.0035917500    0.0170572800   -0.0244402600
   0.0028681700    0.0173947500   -0.0259311000
   0.0063293300    0.0184587600   -0.0264764300
   0.0161144900   -0.0410933900    0.0047275500
  -0.0029444500   -0.0174878000    0.0259960200
  -0.0030791000   -0.0172553400    0.0259662900
  -0.0028787300   -0.0173610900    0.0260531900
   0.0032666600   -0.0171914300   -0.0260217700
   0.0032798700   -0.0166999800   -0.0243390700
   0.0029957000   -0.0174914600   -0.0259524200
   0.0031992300   -0.0171864400   -0.0254894200
  -0.0029645200    0.0174422400    0.0259737700
  -0.0028129000    0.0177036800    0.0261056300
  -0.0028790900    0.0173512500    0.0259683300
  -0.0034481200    0.0171904600    0.0252670200
   0.0028186300    0.0174894700   -0.0260464500
   0.0031131700    0.0174870800   -0.0261886400
   0.0024839800    0.0171598400   -0.0256469600
   0.0029645100    0.0173579500   -0.0258780300
  -0.0029414900   -0.0172496500    0.0259107700
  -0.0047905300   -0.0164123100    0.0275976400
  -0.0029567600   -0.0173253300    0.0260109600
  -0.0030373200   -0.0175741000    0.0262450600
   0.0036336900   -0.0158201600   -0.0268578700
   0.0030857900   -0.0174791200   -0.0262066000
   0.0027011800   -0.0170994700   -0.0258381700
   0.0030886600   -0.0174544200   -0.0259303300

13   
  0.0099995753073327   0.0000000000000000  -0.0000921611251181
   0.0037574400    0.0389259700   -0.0206092100
   0.0034213700    0.0389539700   -0.0210689400
   0.0045777700    0.0405161500   -0.0197722400
   0.0036967800    0.0397171300   -0.0207942700
  -0.0025015500    0.0373489400    0.0219800900
  -0.0033851300    0.0381222600    0.0209824800
  -0.0033173200    0.0389180300    0.0211654900
  -0.0036503400    0.0388947900    0.0207021300
  -0.0053322700   -0.0389760500    0.0219929000
  -0.0035520000   -0.0386641600    0.0206610700
  -0.0035542600   -0.0390089900    0.0209438600
  -0.0036031900   -0.0391277400    0.0207377200
  -0.1290508900   -0.0152012800   -0.0054339900
   0.0004860200   -0.0141520200    0.0000457100
   0.0000999000   -0.0141522500   -0.0000227900
  -0.0000110900   -0.0141531700   -0.0000918500
   0.0032150400    0.0123578800   -0.0000403000
   0.0000639800    0.0140952200   -0.0000127500
   0.0032143200    0.0159388800   -0.0000311100
   0.0000645500    0.0142098400   -0.0000131600
   0.0017722600   -0.0387962800   -0.0198264900
   0.0035224400   -0.0391895000   -0.0211032100
   0.0035173300   -0.0388356300   -0.0208307100
   0.0034694400   -0.0387205000   -0.0210389200
   0.0035753300    0.0387196300   -0.0205991800
   0.0034920800    0.0389689500   -0.0208993600
  -0.0005854500    0.0428224800   -0.0266558200
   0.0034912900    0.0389800200   -0.0208232400
  -0.0076803400    0.0350575600    0.0151402000
  -0.0035807600    0.0388643500    0.0209520400
  -0.0035006800    0.0391278600    0.0211826700
  -0.0035789700    0.0388780400    0.0208763000
   0.0170757200   -0.0548396000    0.0374559600
  -0.0035397900   -0.0388826200    0.0210557900
  -0.0036967100   -0.0386915300    0.0206290900
  -0.0035374900   -0.0389699000    0.0209283000
   0.0002644900   -0.0142734600   -0.0001080300
   0.0002713800   -0.0140373300   -0.0001229400