phonopy:
  version: "2.21.2"
  frequency_unit_conversion_factor: 15.633302
  symmetry_tolerance: 1.00000e-05
  configuration:
    force_constants: "WRITE"
    dim: "2 0 0 0 1 0 0 0 2"
    primitive_axis: "1/2 1/2 0 -1/2 1/2 0 0 0 1"
    full_force_constants: ".TRUE."

physical_unit:
  atomic_mass: "AMU"
  length: "angstrom"
  force_constants: "eV/angstrom^2"

space_group:
  type: "C2/c"
  number: 15
  Hall_symbol: "-C 2yc"

primitive_matrix:
- [  0.500000000000000,  0.500000000000000,  0.000000000000000 ]
- [ -0.500000000000000,  0.500000000000000,  0.000000000000000 ]
- [  0.000000000000000,  0.000000000000000,  1.000000000000000 ]

supercell_matrix:
- [   2,   0,   0 ]
- [   0,   1,   0 ]
- [   0,   0,   2 ]

primitive_cell:
  lattice:
  - [     3.922037605000000,    -4.407380550000000,    -0.036147475000000 ] # a
  - [     3.922037605000000,     4.407380550000000,    -0.036147475000000 ] # b
  - [    -1.093246800000000,     0.000000000000000,     7.488852440000000 ] # c
  points:
  - symbol: P  # 1
    coordinates: [  0.938232530000000,  0.824000850000000,  0.022552770000000 ]
    mass: 30.973762
  - symbol: P  # 2
    coordinates: [  0.175999150000000,  0.061767470000000,  0.477447230000000 ]
    mass: 30.973762
  - symbol: P  # 3
    coordinates: [  0.061767470000000,  0.175999150000000,  0.977447230000000 ]
    mass: 30.973762
  - symbol: P  # 4
    coordinates: [  0.804141110000000,  0.195858890000000,  0.750000000000000 ]
    mass: 30.973762
  - symbol: P  # 5
    coordinates: [  0.195858890000000,  0.804141110000000,  0.250000000000000 ]
    mass: 30.973762
  - symbol: P  # 6
    coordinates: [  0.824000850000000,  0.938232530000000,  0.522552770000000 ]
    mass: 30.973762
  - symbol: Cl # 7
    coordinates: [  0.370790270000000,  0.629209730000000,  0.750000000000000 ]
    mass: 35.453000
  - symbol: Cl # 8
    coordinates: [  0.629209730000000,  0.370790270000000,  0.250000000000000 ]
    mass: 35.453000
  - symbol: Hg # 9
    coordinates: [  0.863949890000000,  0.591090250000000,  0.670097320000000 ]
    mass: 200.590000
  - symbol: Hg # 10
    coordinates: [  0.408909750000000,  0.136050110000000,  0.829902680000000 ]
    mass: 200.590000
  - symbol: Hg # 11
    coordinates: [  0.591090250000000,  0.863949890000000,  0.170097320000000 ]
    mass: 200.590000
  - symbol: Hg # 12
    coordinates: [  0.136050110000000,  0.408909750000000,  0.329902680000000 ]
    mass: 200.590000
  reciprocal_lattice: # without 2pi
  - [     0.127656510271648,    -0.113446069457288,     0.018635708537695 ] # a*
  - [     0.127656510271648,     0.113446069457288,     0.018635708537695 ] # b*
  - [     0.001232354503070,     0.000000000000000,     0.133711710257299 ] # c*

unit_cell:
  lattice:
  - [     7.844075210000000,     0.000000000000000,    -0.072294950000000 ] # a
  - [     0.000000000000000,     8.814761100000000,     0.000000000000000 ] # b
  - [    -1.093246800000000,     0.000000000000000,     7.488852440000000 ] # c
  points:
  - symbol: P  # 1
    coordinates: [  0.881116690000000,  0.942884160000000,  0.022552770000000 ]
    mass: 30.973762
    reduced_to: 1
  - symbol: P  # 2
    coordinates: [  0.118883310000000,  0.942884160000000,  0.477447230000000 ]
    mass: 30.973762
    reduced_to: 2
  - symbol: P  # 3
    coordinates: [  0.118883310000000,  0.057115840000000,  0.977447230000000 ]
    mass: 30.973762
    reduced_to: 3
  - symbol: P  # 4
    coordinates: [  0.500000000000000,  0.695858890000000,  0.750000000000000 ]
    mass: 30.973762
    reduced_to: 4
  - symbol: P  # 5
    coordinates: [  0.500000000000000,  0.304141110000000,  0.250000000000000 ]
    mass: 30.973762
    reduced_to: 5
  - symbol: P  # 6
    coordinates: [  0.881116690000000,  0.057115840000000,  0.522552770000000 ]
    mass: 30.973762
    reduced_to: 6
  - symbol: P  # 7
    coordinates: [  0.381116690000000,  0.442884160000000,  0.022552770000000 ]
    mass: 30.973762
    reduced_to: 1
  - symbol: P  # 8
    coordinates: [  0.618883310000000,  0.442884160000000,  0.477447230000000 ]
    mass: 30.973762
    reduced_to: 2
  - symbol: P  # 9
    coordinates: [  0.618883310000000,  0.557115840000000,  0.977447230000000 ]
    mass: 30.973762
    reduced_to: 3
  - symbol: P  # 10
    coordinates: [  0.000000000000000,  0.195858890000000,  0.750000000000000 ]
    mass: 30.973762
    reduced_to: 4
  - symbol: P  # 11
    coordinates: [  0.000000000000000,  0.804141110000000,  0.250000000000000 ]
    mass: 30.973762
    reduced_to: 5
  - symbol: P  # 12
    coordinates: [  0.381116690000000,  0.557115840000000,  0.522552770000000 ]
    mass: 30.973762
    reduced_to: 6
  - symbol: Cl # 13
    coordinates: [  0.500000000000000,  0.129209730000000,  0.750000000000000 ]
    mass: 35.453000
    reduced_to: 13
  - symbol: Cl # 14
    coordinates: [  0.500000000000000,  0.870790270000000,  0.250000000000000 ]
    mass: 35.453000
    reduced_to: 14
  - symbol: Cl # 15
    coordinates: [  0.000000000000000,  0.629209730000000,  0.750000000000000 ]
    mass: 35.453000
    reduced_to: 13
  - symbol: Cl # 16
    coordinates: [  0.000000000000000,  0.370790270000000,  0.250000000000000 ]
    mass: 35.453000
    reduced_to: 14
  - symbol: Hg # 17
    coordinates: [  0.727520070000000,  0.863570180000000,  0.670097320000000 ]
    mass: 200.590000
    reduced_to: 17
  - symbol: Hg # 18
    coordinates: [  0.272479930000000,  0.863570180000000,  0.829902680000000 ]
    mass: 200.590000
    reduced_to: 18
  - symbol: Hg # 19
    coordinates: [  0.727520070000000,  0.136429820000000,  0.170097320000000 ]
    mass: 200.590000
    reduced_to: 19
  - symbol: Hg # 20
    coordinates: [  0.272479930000000,  0.136429820000000,  0.329902680000000 ]
    mass: 200.590000
    reduced_to: 20
  - symbol: Hg # 21
    coordinates: [  0.227520070000000,  0.363570180000000,  0.670097320000000 ]
    mass: 200.590000
    reduced_to: 17
  - symbol: Hg # 22
    coordinates: [  0.772479930000000,  0.363570180000000,  0.829902680000000 ]
    mass: 200.590000
    reduced_to: 18
  - symbol: Hg # 23
    coordinates: [  0.227520070000000,  0.636429820000000,  0.170097320000000 ]
    mass: 200.590000
    reduced_to: 19
  - symbol: Hg # 24
    coordinates: [  0.772479930000000,  0.636429820000000,  0.329902680000000 ]
    mass: 200.590000
    reduced_to: 20

supercell:
  lattice:
  - [    15.688150419999999,     0.000000000000000,    -0.144589900000000 ] # a
  - [     0.000000000000000,     8.814761100000000,     0.000000000000000 ] # b
  - [    -2.186493600000000,     0.000000000000000,    14.977704879999999 ] # c
  points:
  - symbol: P  # 1
    coordinates: [  0.440558345000000,  0.942884160000000,  0.011276385000000 ]
    mass: 30.973762
    reduced_to: 1
  - symbol: P  # 2
    coordinates: [  0.940558345000000,  0.942884160000000,  0.011276385000000 ]
    mass: 30.973762
    reduced_to: 1
  - symbol: P  # 3
    coordinates: [  0.440558345000000,  0.942884160000000,  0.511276385000000 ]
    mass: 30.973762
    reduced_to: 1
  - symbol: P  # 4
    coordinates: [  0.940558345000000,  0.942884160000000,  0.511276385000000 ]
    mass: 30.973762
    reduced_to: 1
  - symbol: P  # 5
    coordinates: [  0.059441655000000,  0.942884160000000,  0.238723615000000 ]
    mass: 30.973762
    reduced_to: 5
  - symbol: P  # 6
    coordinates: [  0.559441655000000,  0.942884160000000,  0.238723615000000 ]
    mass: 30.973762
    reduced_to: 5
  - symbol: P  # 7
    coordinates: [  0.059441655000000,  0.942884160000000,  0.738723615000000 ]
    mass: 30.973762
    reduced_to: 5
  - symbol: P  # 8
    coordinates: [  0.559441655000000,  0.942884160000000,  0.738723615000000 ]
    mass: 30.973762
    reduced_to: 5
  - symbol: P  # 9
    coordinates: [  0.059441655000000,  0.057115840000000,  0.488723615000000 ]
    mass: 30.973762
    reduced_to: 9
  - symbol: P  # 10
    coordinates: [  0.559441655000000,  0.057115840000000,  0.488723615000000 ]
    mass: 30.973762
    reduced_to: 9
  - symbol: P  # 11
    coordinates: [  0.059441655000000,  0.057115840000000,  0.988723615000000 ]
    mass: 30.973762
    reduced_to: 9
  - symbol: P  # 12
    coordinates: [  0.559441655000000,  0.057115840000000,  0.988723615000000 ]
    mass: 30.973762
    reduced_to: 9
  - symbol: P  # 13
    coordinates: [  0.250000000000000,  0.695858890000000,  0.375000000000000 ]
    mass: 30.973762
    reduced_to: 13
  - symbol: P  # 14
    coordinates: [  0.750000000000000,  0.695858890000000,  0.375000000000000 ]
    mass: 30.973762
    reduced_to: 13
  - symbol: P  # 15
    coordinates: [  0.250000000000000,  0.695858890000000,  0.875000000000000 ]
    mass: 30.973762
    reduced_to: 13
  - symbol: P  # 16
    coordinates: [  0.750000000000000,  0.695858890000000,  0.875000000000000 ]
    mass: 30.973762
    reduced_to: 13
  - symbol: P  # 17
    coordinates: [  0.250000000000000,  0.304141110000000,  0.125000000000000 ]
    mass: 30.973762
    reduced_to: 17
  - symbol: P  # 18
    coordinates: [  0.750000000000000,  0.304141110000000,  0.125000000000000 ]
    mass: 30.973762
    reduced_to: 17
  - symbol: P  # 19
    coordinates: [  0.250000000000000,  0.304141110000000,  0.625000000000000 ]
    mass: 30.973762
    reduced_to: 17
  - symbol: P  # 20
    coordinates: [  0.750000000000000,  0.304141110000000,  0.625000000000000 ]
    mass: 30.973762
    reduced_to: 17
  - symbol: P  # 21
    coordinates: [  0.440558345000000,  0.057115840000000,  0.261276385000000 ]
    mass: 30.973762
    reduced_to: 21
  - symbol: P  # 22
    coordinates: [  0.940558345000000,  0.057115840000000,  0.261276385000000 ]
    mass: 30.973762
    reduced_to: 21
  - symbol: P  # 23
    coordinates: [  0.440558345000000,  0.057115840000000,  0.761276385000000 ]
    mass: 30.973762
    reduced_to: 21
  - symbol: P  # 24
    coordinates: [  0.940558345000000,  0.057115840000000,  0.761276385000000 ]
    mass: 30.973762
    reduced_to: 21
  - symbol: P  # 25
    coordinates: [  0.190558345000000,  0.442884160000000,  0.011276385000000 ]
    mass: 30.973762
    reduced_to: 1
  - symbol: P  # 26
    coordinates: [  0.690558345000000,  0.442884160000000,  0.011276385000000 ]
    mass: 30.973762
    reduced_to: 1
  - symbol: P  # 27
    coordinates: [  0.190558345000000,  0.442884160000000,  0.511276385000000 ]
    mass: 30.973762
    reduced_to: 1
  - symbol: P  # 28
    coordinates: [  0.690558345000000,  0.442884160000000,  0.511276385000000 ]
    mass: 30.973762
    reduced_to: 1
  - symbol: P  # 29
    coordinates: [  0.309441655000000,  0.442884160000000,  0.238723615000000 ]
    mass: 30.973762
    reduced_to: 5
  - symbol: P  # 30
    coordinates: [  0.809441655000000,  0.442884160000000,  0.238723615000000 ]
    mass: 30.973762
    reduced_to: 5
  - symbol: P  # 31
    coordinates: [  0.309441655000000,  0.442884160000000,  0.738723615000000 ]
    mass: 30.973762
    reduced_to: 5
  - symbol: P  # 32
    coordinates: [  0.809441655000000,  0.442884160000000,  0.738723615000000 ]
    mass: 30.973762
    reduced_to: 5
  - symbol: P  # 33
    coordinates: [  0.309441655000000,  0.557115840000000,  0.488723615000000 ]
    mass: 30.973762
    reduced_to: 9
  - symbol: P  # 34
    coordinates: [  0.809441655000000,  0.557115840000000,  0.488723615000000 ]
    mass: 30.973762
    reduced_to: 9
  - symbol: P  # 35
    coordinates: [  0.309441655000000,  0.557115840000000,  0.988723615000000 ]
    mass: 30.973762
    reduced_to: 9
  - symbol: P  # 36
    coordinates: [  0.809441655000000,  0.557115840000000,  0.988723615000000 ]
    mass: 30.973762
    reduced_to: 9
  - symbol: P  # 37
    coordinates: [  0.000000000000000,  0.195858890000000,  0.375000000000000 ]
    mass: 30.973762
    reduced_to: 13
  - symbol: P  # 38
    coordinates: [  0.500000000000000,  0.195858890000000,  0.375000000000000 ]
    mass: 30.973762
    reduced_to: 13
  - symbol: P  # 39
    coordinates: [  0.000000000000000,  0.195858890000000,  0.875000000000000 ]
    mass: 30.973762
    reduced_to: 13
  - symbol: P  # 40
    coordinates: [  0.500000000000000,  0.195858890000000,  0.875000000000000 ]
    mass: 30.973762
    reduced_to: 13
  - symbol: P  # 41
    coordinates: [  0.000000000000000,  0.804141110000000,  0.125000000000000 ]
    mass: 30.973762
    reduced_to: 17
  - symbol: P  # 42
    coordinates: [  0.500000000000000,  0.804141110000000,  0.125000000000000 ]
    mass: 30.973762
    reduced_to: 17
  - symbol: P  # 43
    coordinates: [  0.000000000000000,  0.804141110000000,  0.625000000000000 ]
    mass: 30.973762
    reduced_to: 17
  - symbol: P  # 44
    coordinates: [  0.500000000000000,  0.804141110000000,  0.625000000000000 ]
    mass: 30.973762
    reduced_to: 17
  - symbol: P  # 45
    coordinates: [  0.190558345000000,  0.557115840000000,  0.261276385000000 ]
    mass: 30.973762
    reduced_to: 21
  - symbol: P  # 46
    coordinates: [  0.690558345000000,  0.557115840000000,  0.261276385000000 ]
    mass: 30.973762
    reduced_to: 21
  - symbol: P  # 47
    coordinates: [  0.190558345000000,  0.557115840000000,  0.761276385000000 ]
    mass: 30.973762
    reduced_to: 21
  - symbol: P  # 48
    coordinates: [  0.690558345000000,  0.557115840000000,  0.761276385000000 ]
    mass: 30.973762
    reduced_to: 21
  - symbol: Cl # 49
    coordinates: [  0.250000000000000,  0.129209730000000,  0.375000000000000 ]
    mass: 35.453000
    reduced_to: 49
  - symbol: Cl # 50
    coordinates: [  0.750000000000000,  0.129209730000000,  0.375000000000000 ]
    mass: 35.453000
    reduced_to: 49
  - symbol: Cl # 51
    coordinates: [  0.250000000000000,  0.129209730000000,  0.875000000000000 ]
    mass: 35.453000
    reduced_to: 49
  - symbol: Cl # 52
    coordinates: [  0.750000000000000,  0.129209730000000,  0.875000000000000 ]
    mass: 35.453000
    reduced_to: 49
  - symbol: Cl # 53
    coordinates: [  0.250000000000000,  0.870790270000000,  0.125000000000000 ]
    mass: 35.453000
    reduced_to: 53
  - symbol: Cl # 54
    coordinates: [  0.750000000000000,  0.870790270000000,  0.125000000000000 ]
    mass: 35.453000
    reduced_to: 53
  - symbol: Cl # 55
    coordinates: [  0.250000000000000,  0.870790270000000,  0.625000000000000 ]
    mass: 35.453000
    reduced_to: 53
  - symbol: Cl # 56
    coordinates: [  0.750000000000000,  0.870790270000000,  0.625000000000000 ]
    mass: 35.453000
    reduced_to: 53
  - symbol: Cl # 57
    coordinates: [  0.000000000000000,  0.629209730000000,  0.375000000000000 ]
    mass: 35.453000
    reduced_to: 49
  - symbol: Cl # 58
    coordinates: [  0.500000000000000,  0.629209730000000,  0.375000000000000 ]
    mass: 35.453000
    reduced_to: 49
  - symbol: Cl # 59
    coordinates: [  0.000000000000000,  0.629209730000000,  0.875000000000000 ]
    mass: 35.453000
    reduced_to: 49
  - symbol: Cl # 60
    coordinates: [  0.500000000000000,  0.629209730000000,  0.875000000000000 ]
    mass: 35.453000
    reduced_to: 49
  - symbol: Cl # 61
    coordinates: [  0.000000000000000,  0.370790270000000,  0.125000000000000 ]
    mass: 35.453000
    reduced_to: 53
  - symbol: Cl # 62
    coordinates: [  0.500000000000000,  0.370790270000000,  0.125000000000000 ]
    mass: 35.453000
    reduced_to: 53
  - symbol: Cl # 63
    coordinates: [  0.000000000000000,  0.370790270000000,  0.625000000000000 ]
    mass: 35.453000
    reduced_to: 53
  - symbol: Cl # 64
    coordinates: [  0.500000000000000,  0.370790270000000,  0.625000000000000 ]
    mass: 35.453000
    reduced_to: 53
  - symbol: Hg # 65
    coordinates: [  0.363760035000000,  0.863570180000000,  0.335048660000000 ]
    mass: 200.590000
    reduced_to: 65
  - symbol: Hg # 66
    coordinates: [  0.863760035000000,  0.863570180000000,  0.335048660000000 ]
    mass: 200.590000
    reduced_to: 65
  - symbol: Hg # 67
    coordinates: [  0.363760035000000,  0.863570180000000,  0.835048660000000 ]
    mass: 200.590000
    reduced_to: 65
  - symbol: Hg # 68
    coordinates: [  0.863760035000000,  0.863570180000000,  0.835048660000000 ]
    mass: 200.590000
    reduced_to: 65
  - symbol: Hg # 69
    coordinates: [  0.136239965000000,  0.863570180000000,  0.414951340000000 ]
    mass: 200.590000
    reduced_to: 69
  - symbol: Hg # 70
    coordinates: [  0.636239965000000,  0.863570180000000,  0.414951340000000 ]
    mass: 200.590000
    reduced_to: 69
  - symbol: Hg # 71
    coordinates: [  0.136239965000000,  0.863570180000000,  0.914951340000000 ]
    mass: 200.590000
    reduced_to: 69
  - symbol: Hg # 72
    coordinates: [  0.636239965000000,  0.863570180000000,  0.914951340000000 ]
    mass: 200.590000
    reduced_to: 69
  - symbol: Hg # 73
    coordinates: [  0.363760035000000,  0.136429820000000,  0.085048660000000 ]
    mass: 200.590000
    reduced_to: 73
  - symbol: Hg # 74
    coordinates: [  0.863760035000000,  0.136429820000000,  0.085048660000000 ]
    mass: 200.590000
    reduced_to: 73
  - symbol: Hg # 75
    coordinates: [  0.363760035000000,  0.136429820000000,  0.585048660000000 ]
    mass: 200.590000
    reduced_to: 73
  - symbol: Hg # 76
    coordinates: [  0.863760035000000,  0.136429820000000,  0.585048660000000 ]
    mass: 200.590000
    reduced_to: 73
  - symbol: Hg # 77
    coordinates: [  0.136239965000000,  0.136429820000000,  0.164951340000000 ]
    mass: 200.590000
    reduced_to: 77
  - symbol: Hg # 78
    coordinates: [  0.636239965000000,  0.136429820000000,  0.164951340000000 ]
    mass: 200.590000
    reduced_to: 77
  - symbol: Hg # 79
    coordinates: [  0.136239965000000,  0.136429820000000,  0.664951340000000 ]
    mass: 200.590000
    reduced_to: 77
  - symbol: Hg # 80
    coordinates: [  0.636239965000000,  0.136429820000000,  0.664951340000000 ]
    mass: 200.590000
    reduced_to: 77
  - symbol: Hg # 81
    coordinates: [  0.113760035000000,  0.363570180000000,  0.335048660000000 ]
    mass: 200.590000
    reduced_to: 65
  - symbol: Hg # 82
    coordinates: [  0.613760035000000,  0.363570180000000,  0.335048660000000 ]
    mass: 200.590000
    reduced_to: 65
  - symbol: Hg # 83
    coordinates: [  0.113760035000000,  0.363570180000000,  0.835048660000000 ]
    mass: 200.590000
    reduced_to: 65
  - symbol: Hg # 84
    coordinates: [  0.613760035000000,  0.363570180000000,  0.835048660000000 ]
    mass: 200.590000
    reduced_to: 65
  - symbol: Hg # 85
    coordinates: [  0.386239965000000,  0.363570180000000,  0.414951340000000 ]
    mass: 200.590000
    reduced_to: 69
  - symbol: Hg # 86
    coordinates: [  0.886239965000000,  0.363570180000000,  0.414951340000000 ]
    mass: 200.590000
    reduced_to: 69
  - symbol: Hg # 87
    coordinates: [  0.386239965000000,  0.363570180000000,  0.914951340000000 ]
    mass: 200.590000
    reduced_to: 69
  - symbol: Hg # 88
    coordinates: [  0.886239965000000,  0.363570180000000,  0.914951340000000 ]
    mass: 200.590000
    reduced_to: 69
  - symbol: Hg # 89
    coordinates: [  0.113760035000000,  0.636429820000000,  0.085048660000000 ]
    mass: 200.590000
    reduced_to: 73
  - symbol: Hg # 90
    coordinates: [  0.613760035000000,  0.636429820000000,  0.085048660000000 ]
    mass: 200.590000
    reduced_to: 73
  - symbol: Hg # 91
    coordinates: [  0.113760035000000,  0.636429820000000,  0.585048660000000 ]
    mass: 200.590000
    reduced_to: 73
  - symbol: Hg # 92
    coordinates: [  0.613760035000000,  0.636429820000000,  0.585048660000000 ]
    mass: 200.590000
    reduced_to: 73
  - symbol: Hg # 93
    coordinates: [  0.386239965000000,  0.636429820000000,  0.164951340000000 ]
    mass: 200.590000
    reduced_to: 77
  - symbol: Hg # 94
    coordinates: [  0.886239965000000,  0.636429820000000,  0.164951340000000 ]
    mass: 200.590000
    reduced_to: 77
  - symbol: Hg # 95
    coordinates: [  0.386239965000000,  0.636429820000000,  0.664951340000000 ]
    mass: 200.590000
    reduced_to: 77
  - symbol: Hg # 96
    coordinates: [  0.886239965000000,  0.636429820000000,  0.664951340000000 ]
    mass: 200.590000
    reduced_to: 77
