natom:   64
displacements:
- atom:    1
  displacement:
    [   0.0100000000000000,  0.0000000000000000,  0.0000000000000000 ]
- atom:   33
  displacement:
    [   0.0100000000000000,  0.0000000000000000,  0.0000000000000000 ]
lattice:
- [     7.9906006600000001,     0.0000000000000000,     0.0000000000000000 ] # a
- [     0.0000000000000000,     7.9906006600000001,     0.0000000000000000 ] # b
- [     0.0000000000000000,     0.0000000000000000,     7.9906006600000001 ] # c
atoms:
- symbol: Li # 1
  position: [  0.0000000000000000,  0.0000000000000000,  0.0000000000000000 ]
  mass: 6.941000
- symbol: Li # 2
  position: [  0.5000000000000000,  0.0000000000000000,  0.0000000000000000 ]
  mass: 6.941000
- symbol: Li # 3
  position: [  0.0000000000000000,  0.5000000000000000,  0.0000000000000000 ]
  mass: 6.941000
- symbol: Li # 4
  position: [  0.5000000000000000,  0.5000000000000000,  0.0000000000000000 ]
  mass: 6.941000
- symbol: Li # 5
  position: [  0.0000000000000000,  0.0000000000000000,  0.5000000000000000 ]
  mass: 6.941000
- symbol: Li # 6
  position: [  0.5000000000000000,  0.0000000000000000,  0.5000000000000000 ]
  mass: 6.941000
- symbol: Li # 7
  position: [  0.0000000000000000,  0.5000000000000000,  0.5000000000000000 ]
  mass: 6.941000
- symbol: Li # 8
  position: [  0.5000000000000000,  0.5000000000000000,  0.5000000000000000 ]
  mass: 6.941000
- symbol: Li # 9
  position: [  0.0000000000000000,  0.2500000000000000,  0.2500000000000000 ]
  mass: 6.941000
- symbol: Li # 10
  position: [  0.5000000000000000,  0.2500000000000000,  0.2500000000000000 ]
  mass: 6.941000
- symbol: Li # 11
  position: [  0.0000000000000000,  0.7500000000000000,  0.2500000000000000 ]
  mass: 6.941000
- symbol: Li # 12
  position: [  0.5000000000000000,  0.7500000000000000,  0.2500000000000000 ]
  mass: 6.941000
- symbol: Li # 13
  position: [  0.0000000000000000,  0.2500000000000000,  0.7500000000000000 ]
  mass: 6.941000
- symbol: Li # 14
  position: [  0.5000000000000000,  0.2500000000000000,  0.7500000000000000 ]
  mass: 6.941000
- symbol: Li # 15
  position: [  0.0000000000000000,  0.7500000000000000,  0.7500000000000000 ]
  mass: 6.941000
- symbol: Li # 16
  position: [  0.5000000000000000,  0.7500000000000000,  0.7500000000000000 ]
  mass: 6.941000
- symbol: Li # 17
  position: [  0.2500000000000000,  0.0000000000000000,  0.2500000000000000 ]
  mass: 6.941000
- symbol: Li # 18
  position: [  0.7500000000000000,  0.0000000000000000,  0.2500000000000000 ]
  mass: 6.941000
- symbol: Li # 19
  position: [  0.2500000000000000,  0.5000000000000000,  0.2500000000000000 ]
  mass: 6.941000
- symbol: Li # 20
  position: [  0.7500000000000000,  0.5000000000000000,  0.2500000000000000 ]
  mass: 6.941000
- symbol: Li # 21
  position: [  0.2500000000000000,  0.0000000000000000,  0.7500000000000000 ]
  mass: 6.941000
- symbol: Li # 22
  position: [  0.7500000000000000,  0.0000000000000000,  0.7500000000000000 ]
  mass: 6.941000
- symbol: Li # 23
  position: [  0.2500000000000000,  0.5000000000000000,  0.7500000000000000 ]
  mass: 6.941000
- symbol: Li # 24
  position: [  0.7500000000000000,  0.5000000000000000,  0.7500000000000000 ]
  mass: 6.941000
- symbol: Li # 25
  position: [  0.2500000000000000,  0.2500000000000000,  0.0000000000000000 ]
  mass: 6.941000
- symbol: Li # 26
  position: [  0.7500000000000000,  0.2500000000000000,  0.0000000000000000 ]
  mass: 6.941000
- symbol: Li # 27
  position: [  0.2500000000000000,  0.7500000000000000,  0.0000000000000000 ]
  mass: 6.941000
- symbol: Li # 28
  position: [  0.7500000000000000,  0.7500000000000000,  0.0000000000000000 ]
  mass: 6.941000
- symbol: Li # 29
  position: [  0.2500000000000000,  0.2500000000000000,  0.5000000000000000 ]
  mass: 6.941000
- symbol: Li # 30
  position: [  0.7500000000000000,  0.2500000000000000,  0.5000000000000000 ]
  mass: 6.941000
- symbol: Li # 31
  position: [  0.2500000000000000,  0.7500000000000000,  0.5000000000000000 ]
  mass: 6.941000
- symbol: Li # 32
  position: [  0.7500000000000000,  0.7500000000000000,  0.5000000000000000 ]
  mass: 6.941000
- symbol: F  # 33
  position: [  0.2500000000000000,  0.0000000000000000,  0.0000000000000000 ]
  mass: 18.998403
- symbol: F  # 34
  position: [  0.7500000000000000,  0.0000000000000000,  0.0000000000000000 ]
  mass: 18.998403
- symbol: F  # 35
  position: [  0.2500000000000000,  0.5000000000000000,  0.0000000000000000 ]
  mass: 18.998403
- symbol: F  # 36
  position: [  0.7500000000000000,  0.5000000000000000,  0.0000000000000000 ]
  mass: 18.998403
- symbol: F  # 37
  position: [  0.2500000000000000,  0.0000000000000000,  0.5000000000000000 ]
  mass: 18.998403
- symbol: F  # 38
  position: [  0.7500000000000000,  0.0000000000000000,  0.5000000000000000 ]
  mass: 18.998403
- symbol: F  # 39
  position: [  0.2500000000000000,  0.5000000000000000,  0.5000000000000000 ]
  mass: 18.998403
- symbol: F  # 40
  position: [  0.7500000000000000,  0.5000000000000000,  0.5000000000000000 ]
  mass: 18.998403
- symbol: F  # 41
  position: [  0.2500000000000000,  0.2500000000000000,  0.2500000000000000 ]
  mass: 18.998403
- symbol: F  # 42
  position: [  0.7500000000000000,  0.2500000000000000,  0.2500000000000000 ]
  mass: 18.998403
- symbol: F  # 43
  position: [  0.2500000000000000,  0.7500000000000000,  0.2500000000000000 ]
  mass: 18.998403
- symbol: F  # 44
  position: [  0.7500000000000000,  0.7500000000000000,  0.2500000000000000 ]
  mass: 18.998403
- symbol: F  # 45
  position: [  0.2500000000000000,  0.2500000000000000,  0.7500000000000000 ]
  mass: 18.998403
- symbol: F  # 46
  position: [  0.7500000000000000,  0.2500000000000000,  0.7500000000000000 ]
  mass: 18.998403
- symbol: F  # 47
  position: [  0.2500000000000000,  0.7500000000000000,  0.7500000000000000 ]
  mass: 18.998403
- symbol: F  # 48
  position: [  0.7500000000000000,  0.7500000000000000,  0.7500000000000000 ]
  mass: 18.998403
- symbol: F  # 49
  position: [  0.0000000000000000,  0.0000000000000000,  0.2500000000000000 ]
  mass: 18.998403
- symbol: F  # 50
  position: [  0.5000000000000000,  0.0000000000000000,  0.2500000000000000 ]
  mass: 18.998403
- symbol: F  # 51
  position: [  0.0000000000000000,  0.5000000000000000,  0.2500000000000000 ]
  mass: 18.998403
- symbol: F  # 52
  position: [  0.5000000000000000,  0.5000000000000000,  0.2500000000000000 ]
  mass: 18.998403
- symbol: F  # 53
  position: [  0.0000000000000000,  0.0000000000000000,  0.7500000000000000 ]
  mass: 18.998403
- symbol: F  # 54
  position: [  0.5000000000000000,  0.0000000000000000,  0.7500000000000000 ]
  mass: 18.998403
- symbol: F  # 55
  position: [  0.0000000000000000,  0.5000000000000000,  0.7500000000000000 ]
  mass: 18.998403
- symbol: F  # 56
  position: [  0.5000000000000000,  0.5000000000000000,  0.7500000000000000 ]
  mass: 18.998403
- symbol: F  # 57
  position: [  0.0000000000000000,  0.2500000000000000,  0.0000000000000000 ]
  mass: 18.998403
- symbol: F  # 58
  position: [  0.5000000000000000,  0.2500000000000000,  0.0000000000000000 ]
  mass: 18.998403
- symbol: F  # 59
  position: [  0.0000000000000000,  0.7500000000000000,  0.0000000000000000 ]
  mass: 18.998403
- symbol: F  # 60
  position: [  0.5000000000000000,  0.7500000000000000,  0.0000000000000000 ]
  mass: 18.998403
- symbol: F  # 61
  position: [  0.0000000000000000,  0.2500000000000000,  0.5000000000000000 ]
  mass: 18.998403
- symbol: F  # 62
  position: [  0.5000000000000000,  0.2500000000000000,  0.5000000000000000 ]
  mass: 18.998403
- symbol: F  # 63
  position: [  0.0000000000000000,  0.7500000000000000,  0.5000000000000000 ]
  mass: 18.998403
- symbol: F  # 64
  position: [  0.5000000000000000,  0.7500000000000000,  0.5000000000000000 ]
  mass: 18.998403