phonopy:
  version: "2.21.2"
  frequency_unit_conversion_factor: 15.633302
  symmetry_tolerance: 1.00000e-05
  configuration:
    force_constants: "WRITE"
    dim: "2 0 0 0 2 0 0 0 2"
    primitive_axis: "0 1/2 1/2 1/2 0 1/2 1/2 1/2 0"
    full_force_constants: ".TRUE."

physical_unit:
  atomic_mass: "AMU"
  length: "angstrom"
  force_constants: "eV/angstrom^2"

space_group:
  type: "Fm-3m"
  number: 225
  Hall_symbol: "-F 4 2 3"

primitive_matrix:
- [  0.000000000000000,  0.500000000000000,  0.500000000000000 ]
- [  0.500000000000000,  0.000000000000000,  0.500000000000000 ]
- [  0.500000000000000,  0.500000000000000,  0.000000000000000 ]

supercell_matrix:
- [   2,   0,   0 ]
- [   0,   2,   0 ]
- [   0,   0,   2 ]

primitive_cell:
  lattice:
  - [     0.000000000000000,     1.997650165000000,     1.997650165000000 ] # a
  - [     1.997650165000000,     0.000000000000000,     1.997650165000000 ] # b
  - [     1.997650165000000,     1.997650165000000,     0.000000000000000 ] # c
  points:
  - symbol: Li # 1
    coordinates: [  0.000000000000000,  0.000000000000000,  0.000000000000000 ]
    mass: 6.941000
  - symbol: F  # 2
    coordinates: [  0.500000000000000,  0.500000000000000,  0.500000000000000 ]
    mass: 18.998403
  reciprocal_lattice: # without 2pi
  - [    -0.250294074888733,     0.250294074888733,     0.250294074888733 ] # a*
  - [     0.250294074888733,    -0.250294074888733,     0.250294074888733 ] # b*
  - [     0.250294074888733,     0.250294074888733,    -0.250294074888733 ] # c*

unit_cell:
  lattice:
  - [     3.995300330000000,     0.000000000000000,     0.000000000000000 ] # a
  - [     0.000000000000000,     3.995300330000000,     0.000000000000000 ] # b
  - [     0.000000000000000,     0.000000000000000,     3.995300330000000 ] # c
  points:
  - symbol: Li # 1
    coordinates: [  0.000000000000000,  0.000000000000000,  0.000000000000000 ]
    mass: 6.941000
    reduced_to: 1
  - symbol: Li # 2
    coordinates: [  0.000000000000000,  0.500000000000000,  0.500000000000000 ]
    mass: 6.941000
    reduced_to: 1
  - symbol: Li # 3
    coordinates: [  0.500000000000000,  0.000000000000000,  0.500000000000000 ]
    mass: 6.941000
    reduced_to: 1
  - symbol: Li # 4
    coordinates: [  0.500000000000000,  0.500000000000000,  0.000000000000000 ]
    mass: 6.941000
    reduced_to: 1
  - symbol: F  # 5
    coordinates: [  0.500000000000000,  0.000000000000000,  0.000000000000000 ]
    mass: 18.998403
    reduced_to: 5
  - symbol: F  # 6
    coordinates: [  0.500000000000000,  0.500000000000000,  0.500000000000000 ]
    mass: 18.998403
    reduced_to: 5
  - symbol: F  # 7
    coordinates: [  0.000000000000000,  0.000000000000000,  0.500000000000000 ]
    mass: 18.998403
    reduced_to: 5
  - symbol: F  # 8
    coordinates: [  0.000000000000000,  0.500000000000000,  0.000000000000000 ]
    mass: 18.998403
    reduced_to: 5

supercell:
  lattice:
  - [     7.990600660000000,     0.000000000000000,     0.000000000000000 ] # a
  - [     0.000000000000000,     7.990600660000000,     0.000000000000000 ] # b
  - [     0.000000000000000,     0.000000000000000,     7.990600660000000 ] # c
  points:
  - symbol: Li # 1
    coordinates: [  0.000000000000000,  0.000000000000000,  0.000000000000000 ]
    mass: 6.941000
    reduced_to: 1
  - symbol: Li # 2
    coordinates: [  0.500000000000000,  0.000000000000000,  0.000000000000000 ]
    mass: 6.941000
    reduced_to: 1
  - symbol: Li # 3
    coordinates: [  0.000000000000000,  0.500000000000000,  0.000000000000000 ]
    mass: 6.941000
    reduced_to: 1
  - symbol: Li # 4
    coordinates: [  0.500000000000000,  0.500000000000000,  0.000000000000000 ]
    mass: 6.941000
    reduced_to: 1
  - symbol: Li # 5
    coordinates: [  0.000000000000000,  0.000000000000000,  0.500000000000000 ]
    mass: 6.941000
    reduced_to: 1
  - symbol: Li # 6
    coordinates: [  0.500000000000000,  0.000000000000000,  0.500000000000000 ]
    mass: 6.941000
    reduced_to: 1
  - symbol: Li # 7
    coordinates: [  0.000000000000000,  0.500000000000000,  0.500000000000000 ]
    mass: 6.941000
    reduced_to: 1
  - symbol: Li # 8
    coordinates: [  0.500000000000000,  0.500000000000000,  0.500000000000000 ]
    mass: 6.941000
    reduced_to: 1
  - symbol: Li # 9
    coordinates: [  0.000000000000000,  0.250000000000000,  0.250000000000000 ]
    mass: 6.941000
    reduced_to: 1
  - symbol: Li # 10
    coordinates: [  0.500000000000000,  0.250000000000000,  0.250000000000000 ]
    mass: 6.941000
    reduced_to: 1
  - symbol: Li # 11
    coordinates: [  0.000000000000000,  0.750000000000000,  0.250000000000000 ]
    mass: 6.941000
    reduced_to: 1
  - symbol: Li # 12
    coordinates: [  0.500000000000000,  0.750000000000000,  0.250000000000000 ]
    mass: 6.941000
    reduced_to: 1
  - symbol: Li # 13
    coordinates: [  0.000000000000000,  0.250000000000000,  0.750000000000000 ]
    mass: 6.941000
    reduced_to: 1
  - symbol: Li # 14
    coordinates: [  0.500000000000000,  0.250000000000000,  0.750000000000000 ]
    mass: 6.941000
    reduced_to: 1
  - symbol: Li # 15
    coordinates: [  0.000000000000000,  0.750000000000000,  0.750000000000000 ]
    mass: 6.941000
    reduced_to: 1
  - symbol: Li # 16
    coordinates: [  0.500000000000000,  0.750000000000000,  0.750000000000000 ]
    mass: 6.941000
    reduced_to: 1
  - symbol: Li # 17
    coordinates: [  0.250000000000000,  0.000000000000000,  0.250000000000000 ]
    mass: 6.941000
    reduced_to: 1
  - symbol: Li # 18
    coordinates: [  0.750000000000000,  0.000000000000000,  0.250000000000000 ]
    mass: 6.941000
    reduced_to: 1
  - symbol: Li # 19
    coordinates: [  0.250000000000000,  0.500000000000000,  0.250000000000000 ]
    mass: 6.941000
    reduced_to: 1
  - symbol: Li # 20
    coordinates: [  0.750000000000000,  0.500000000000000,  0.250000000000000 ]
    mass: 6.941000
    reduced_to: 1
  - symbol: Li # 21
    coordinates: [  0.250000000000000,  0.000000000000000,  0.750000000000000 ]
    mass: 6.941000
    reduced_to: 1
  - symbol: Li # 22
    coordinates: [  0.750000000000000,  0.000000000000000,  0.750000000000000 ]
    mass: 6.941000
    reduced_to: 1
  - symbol: Li # 23
    coordinates: [  0.250000000000000,  0.500000000000000,  0.750000000000000 ]
    mass: 6.941000
    reduced_to: 1
  - symbol: Li # 24
    coordinates: [  0.750000000000000,  0.500000000000000,  0.750000000000000 ]
    mass: 6.941000
    reduced_to: 1
  - symbol: Li # 25
    coordinates: [  0.250000000000000,  0.250000000000000,  0.000000000000000 ]
    mass: 6.941000
    reduced_to: 1
  - symbol: Li # 26
    coordinates: [  0.750000000000000,  0.250000000000000,  0.000000000000000 ]
    mass: 6.941000
    reduced_to: 1
  - symbol: Li # 27
    coordinates: [  0.250000000000000,  0.750000000000000,  0.000000000000000 ]
    mass: 6.941000
    reduced_to: 1
  - symbol: Li # 28
    coordinates: [  0.750000000000000,  0.750000000000000,  0.000000000000000 ]
    mass: 6.941000
    reduced_to: 1
  - symbol: Li # 29
    coordinates: [  0.250000000000000,  0.250000000000000,  0.500000000000000 ]
    mass: 6.941000
    reduced_to: 1
  - symbol: Li # 30
    coordinates: [  0.750000000000000,  0.250000000000000,  0.500000000000000 ]
    mass: 6.941000
    reduced_to: 1
  - symbol: Li # 31
    coordinates: [  0.250000000000000,  0.750000000000000,  0.500000000000000 ]
    mass: 6.941000
    reduced_to: 1
  - symbol: Li # 32
    coordinates: [  0.750000000000000,  0.750000000000000,  0.500000000000000 ]
    mass: 6.941000
    reduced_to: 1
  - symbol: F  # 33
    coordinates: [  0.250000000000000,  0.000000000000000,  0.000000000000000 ]
    mass: 18.998403
    reduced_to: 33
  - symbol: F  # 34
    coordinates: [  0.750000000000000,  0.000000000000000,  0.000000000000000 ]
    mass: 18.998403
    reduced_to: 33
  - symbol: F  # 35
    coordinates: [  0.250000000000000,  0.500000000000000,  0.000000000000000 ]
    mass: 18.998403
    reduced_to: 33
  - symbol: F  # 36
    coordinates: [  0.750000000000000,  0.500000000000000,  0.000000000000000 ]
    mass: 18.998403
    reduced_to: 33
  - symbol: F  # 37
    coordinates: [  0.250000000000000,  0.000000000000000,  0.500000000000000 ]
    mass: 18.998403
    reduced_to: 33
  - symbol: F  # 38
    coordinates: [  0.750000000000000,  0.000000000000000,  0.500000000000000 ]
    mass: 18.998403
    reduced_to: 33
  - symbol: F  # 39
    coordinates: [  0.250000000000000,  0.500000000000000,  0.500000000000000 ]
    mass: 18.998403
    reduced_to: 33
  - symbol: F  # 40
    coordinates: [  0.750000000000000,  0.500000000000000,  0.500000000000000 ]
    mass: 18.998403
    reduced_to: 33
  - symbol: F  # 41
    coordinates: [  0.250000000000000,  0.250000000000000,  0.250000000000000 ]
    mass: 18.998403
    reduced_to: 33
  - symbol: F  # 42
    coordinates: [  0.750000000000000,  0.250000000000000,  0.250000000000000 ]
    mass: 18.998403
    reduced_to: 33
  - symbol: F  # 43
    coordinates: [  0.250000000000000,  0.750000000000000,  0.250000000000000 ]
    mass: 18.998403
    reduced_to: 33
  - symbol: F  # 44
    coordinates: [  0.750000000000000,  0.750000000000000,  0.250000000000000 ]
    mass: 18.998403
    reduced_to: 33
  - symbol: F  # 45
    coordinates: [  0.250000000000000,  0.250000000000000,  0.750000000000000 ]
    mass: 18.998403
    reduced_to: 33
  - symbol: F  # 46
    coordinates: [  0.750000000000000,  0.250000000000000,  0.750000000000000 ]
    mass: 18.998403
    reduced_to: 33
  - symbol: F  # 47
    coordinates: [  0.250000000000000,  0.750000000000000,  0.750000000000000 ]
    mass: 18.998403
    reduced_to: 33
  - symbol: F  # 48
    coordinates: [  0.750000000000000,  0.750000000000000,  0.750000000000000 ]
    mass: 18.998403
    reduced_to: 33
  - symbol: F  # 49
    coordinates: [  0.000000000000000,  0.000000000000000,  0.250000000000000 ]
    mass: 18.998403
    reduced_to: 33
  - symbol: F  # 50
    coordinates: [  0.500000000000000,  0.000000000000000,  0.250000000000000 ]
    mass: 18.998403
    reduced_to: 33
  - symbol: F  # 51
    coordinates: [  0.000000000000000,  0.500000000000000,  0.250000000000000 ]
    mass: 18.998403
    reduced_to: 33
  - symbol: F  # 52
    coordinates: [  0.500000000000000,  0.500000000000000,  0.250000000000000 ]
    mass: 18.998403
    reduced_to: 33
  - symbol: F  # 53
    coordinates: [  0.000000000000000,  0.000000000000000,  0.750000000000000 ]
    mass: 18.998403
    reduced_to: 33
  - symbol: F  # 54
    coordinates: [  0.500000000000000,  0.000000000000000,  0.750000000000000 ]
    mass: 18.998403
    reduced_to: 33
  - symbol: F  # 55
    coordinates: [  0.000000000000000,  0.500000000000000,  0.750000000000000 ]
    mass: 18.998403
    reduced_to: 33
  - symbol: F  # 56
    coordinates: [  0.500000000000000,  0.500000000000000,  0.750000000000000 ]
    mass: 18.998403
    reduced_to: 33
  - symbol: F  # 57
    coordinates: [  0.000000000000000,  0.250000000000000,  0.000000000000000 ]
    mass: 18.998403
    reduced_to: 33
  - symbol: F  # 58
    coordinates: [  0.500000000000000,  0.250000000000000,  0.000000000000000 ]
    mass: 18.998403
    reduced_to: 33
  - symbol: F  # 59
    coordinates: [  0.000000000000000,  0.750000000000000,  0.000000000000000 ]
    mass: 18.998403
    reduced_to: 33
  - symbol: F  # 60
    coordinates: [  0.500000000000000,  0.750000000000000,  0.000000000000000 ]
    mass: 18.998403
    reduced_to: 33
  - symbol: F  # 61
    coordinates: [  0.000000000000000,  0.250000000000000,  0.500000000000000 ]
    mass: 18.998403
    reduced_to: 33
  - symbol: F  # 62
    coordinates: [  0.500000000000000,  0.250000000000000,  0.500000000000000 ]
    mass: 18.998403
    reduced_to: 33
  - symbol: F  # 63
    coordinates: [  0.000000000000000,  0.750000000000000,  0.500000000000000 ]
    mass: 18.998403
    reduced_to: 33
  - symbol: F  # 64
    coordinates: [  0.500000000000000,  0.750000000000000,  0.500000000000000 ]
    mass: 18.998403
    reduced_to: 33
