# epsilon and Z* of atoms 1 9 11 15 17 21
   2.93882298    0.00000000    0.00000000    0.00000000    2.93882298    0.00000000    0.00000000    0.00000000    2.97237139 
  -1.68095524    0.06147383   -0.04357708    0.15028833   -1.90386307   -0.18665568   -0.05515866   -0.07423790   -1.61889729 
  -1.50427188   -0.10167501    0.05047421   -0.10167501   -1.50427188    0.05047421    0.02104455    0.02104455   -2.19949770 
  -2.05070489   -0.73034143    0.00000000   -0.73034143   -2.05070489   -0.00000000    0.00000000    0.00000000   -1.56006184 
   2.09152452   -0.01571775    0.00000000    0.01571775    2.09152452   -0.00000000    0.00000000    0.00000000    1.60159367 
   2.67334435   -0.09342851    0.03680028   -0.09342851    2.67334435   -0.03680028   -0.02278974    0.02278974    2.93537608 
   2.39533602   -0.28598225    0.17809181   -0.28598225    2.39533602   -0.17809181    0.04657064   -0.04657064    2.48115029 
