natom:   48
displacements:
- atom:    1
  displacement:
    [   0.0100000000000000,  0.0000000000000000,  0.0000000000000000 ]
- atom:    1
  displacement:
    [  -0.0100000000000000,  0.0000000000000000,  0.0000000000000000 ]
- atom:    1
  displacement:
    [   0.0000000000000000,  0.0100000000000000,  0.0000000000000000 ]
- atom:    1
  displacement:
    [   0.0000000000000000, -0.0100000000000000,  0.0000000000000000 ]
- atom:    1
  displacement:
    [   0.0000000000000000,  0.0000000000000000,  0.0100000000000000 ]
- atom:    1
  displacement:
    [   0.0000000000000000,  0.0000000000000000, -0.0100000000000000 ]
- atom:   17
  displacement:
    [   0.0100000000000000,  0.0000000000000000,  0.0000000000000000 ]
- atom:   17
  displacement:
    [  -0.0100000000000000,  0.0000000000000000,  0.0000000000000000 ]
- atom:   17
  displacement:
    [   0.0000000000000000,  0.0000000000000000,  0.0100000000000000 ]
- atom:   17
  displacement:
    [   0.0000000000000000,  0.0000000000000000, -0.0100000000000000 ]
- atom:   21
  displacement:
    [   0.0100000000000000,  0.0000000000000000,  0.0000000000000000 ]
- atom:   21
  displacement:
    [   0.0000000000000000,  0.0000000000000000,  0.0100000000000000 ]
- atom:   21
  displacement:
    [   0.0000000000000000,  0.0000000000000000, -0.0100000000000000 ]
- atom:   29
  displacement:
    [   0.0100000000000000,  0.0000000000000000,  0.0000000000000000 ]
- atom:   29
  displacement:
    [   0.0000000000000000,  0.0000000000000000,  0.0100000000000000 ]
- atom:   33
  displacement:
    [   0.0100000000000000,  0.0000000000000000,  0.0000000000000000 ]
- atom:   33
  displacement:
    [  -0.0100000000000000,  0.0000000000000000,  0.0000000000000000 ]
- atom:   33
  displacement:
    [   0.0000000000000000,  0.0000000000000000,  0.0100000000000000 ]
- atom:   33
  displacement:
    [   0.0000000000000000,  0.0000000000000000, -0.0100000000000000 ]
- atom:   41
  displacement:
    [   0.0100000000000000,  0.0000000000000000,  0.0000000000000000 ]
- atom:   41
  displacement:
    [  -0.0100000000000000,  0.0000000000000000,  0.0000000000000000 ]
- atom:   41
  displacement:
    [   0.0000000000000000,  0.0000000000000000,  0.0100000000000000 ]
- atom:   41
  displacement:
    [   0.0000000000000000,  0.0000000000000000, -0.0100000000000000 ]
lattice:
- [     7.8190960399999998,     0.0000000000000000,     0.0000000000000000 ] # a
- [     0.0000000000000000,     7.8190960399999998,     0.0000000000000000 ] # b
- [     0.0000000000000000,     0.0000000000000000,     9.9558313999999992 ] # c
atoms:
- symbol: O  # 1
  position: [  0.4178369300000000,  0.6836399000000000,  0.3885227650000000 ]
  mass: 15.999400
- symbol: O  # 2
  position: [  0.4178369300000000,  0.6836399000000000,  0.8885227650000000 ]
  mass: 15.999400
- symbol: O  # 3
  position: [  0.5821630700000000,  0.3163601000000000,  0.3885227650000000 ]
  mass: 15.999400
- symbol: O  # 4
  position: [  0.5821630700000000,  0.3163601000000000,  0.8885227650000000 ]
  mass: 15.999400
- symbol: O  # 5
  position: [  0.3163601000000000,  0.4178369300000000,  0.1114772350000000 ]
  mass: 15.999400
- symbol: O  # 6
  position: [  0.3163601000000000,  0.4178369300000000,  0.6114772350000000 ]
  mass: 15.999400
- symbol: O  # 7
  position: [  0.6836399000000000,  0.5821630700000000,  0.1114772350000000 ]
  mass: 15.999400
- symbol: O  # 8
  position: [  0.6836399000000000,  0.5821630700000000,  0.6114772350000000 ]
  mass: 15.999400
- symbol: O  # 9
  position: [  0.1836399000000000,  0.9178369300000000,  0.3885227650000000 ]
  mass: 15.999400
- symbol: O  # 10
  position: [  0.1836399000000000,  0.9178369300000000,  0.8885227650000000 ]
  mass: 15.999400
- symbol: O  # 11
  position: [  0.9178369300000000,  0.8163601000000000,  0.1114772350000000 ]
  mass: 15.999400
- symbol: O  # 12
  position: [  0.9178369300000000,  0.8163601000000000,  0.6114772350000000 ]
  mass: 15.999400
- symbol: O  # 13
  position: [  0.0821630700000000,  0.1836399000000000,  0.1114772350000000 ]
  mass: 15.999400
- symbol: O  # 14
  position: [  0.0821630700000000,  0.1836399000000000,  0.6114772350000000 ]
  mass: 15.999400
- symbol: O  # 15
  position: [  0.8163601000000000,  0.0821630700000000,  0.3885227650000000 ]
  mass: 15.999400
- symbol: O  # 16
  position: [  0.8163601000000000,  0.0821630700000000,  0.8885227650000000 ]
  mass: 15.999400
- symbol: O  # 17
  position: [  0.3577289000000000,  0.8577289000000000,  0.1268566400000000 ]
  mass: 15.999400
- symbol: O  # 18
  position: [  0.3577289000000000,  0.8577289000000000,  0.6268566400000000 ]
  mass: 15.999400
- symbol: O  # 19
  position: [  0.8577289000000000,  0.6422711000000000,  0.3731433600000000 ]
  mass: 15.999400
- symbol: O  # 20
  position: [  0.8577289000000000,  0.6422711000000000,  0.8731433600000000 ]
  mass: 15.999400
- symbol: O  # 21
  position: [  0.5000000000000000,  0.0000000000000000,  0.4052796700000000 ]
  mass: 15.999400
- symbol: O  # 22
  position: [  0.5000000000000000,  0.0000000000000000,  0.9052796700000000 ]
  mass: 15.999400
- symbol: O  # 23
  position: [  0.0000000000000000,  0.5000000000000000,  0.0947203300000000 ]
  mass: 15.999400
- symbol: O  # 24
  position: [  0.0000000000000000,  0.5000000000000000,  0.5947203300000000 ]
  mass: 15.999400
- symbol: O  # 25
  position: [  0.6422711000000000,  0.1422711000000000,  0.1268566400000000 ]
  mass: 15.999400
- symbol: O  # 26
  position: [  0.6422711000000000,  0.1422711000000000,  0.6268566400000000 ]
  mass: 15.999400
- symbol: O  # 27
  position: [  0.1422711000000000,  0.3577289000000000,  0.3731433600000000 ]
  mass: 15.999400
- symbol: O  # 28
  position: [  0.1422711000000000,  0.3577289000000000,  0.8731433600000000 ]
  mass: 15.999400
- symbol: Mg # 29
  position: [  0.0000000000000000,  0.0000000000000000,  0.0000000000000000 ]
  mass: 24.305000
- symbol: Mg # 30
  position: [  0.0000000000000000,  0.0000000000000000,  0.5000000000000000 ]
  mass: 24.305000
- symbol: Mg # 31
  position: [  0.5000000000000000,  0.5000000000000000,  0.0000000000000000 ]
  mass: 24.305000
- symbol: Mg # 32
  position: [  0.5000000000000000,  0.5000000000000000,  0.5000000000000000 ]
  mass: 24.305000
- symbol: Si # 33
  position: [  0.8586404500000000,  0.6413595500000000,  0.0350090600000000 ]
  mass: 28.085500
- symbol: Si # 34
  position: [  0.8586404500000000,  0.6413595500000000,  0.5350090600000000 ]
  mass: 28.085500
- symbol: Si # 35
  position: [  0.6413595500000000,  0.1413595500000000,  0.4649909400000000 ]
  mass: 28.085500
- symbol: Si # 36
  position: [  0.6413595500000000,  0.1413595500000000,  0.9649909400000001 ]
  mass: 28.085500
- symbol: Si # 37
  position: [  0.1413595500000000,  0.3586404500000000,  0.0350090600000000 ]
  mass: 28.085500
- symbol: Si # 38
  position: [  0.1413595500000000,  0.3586404500000000,  0.5350090600000000 ]
  mass: 28.085500
- symbol: Si # 39
  position: [  0.3586404500000000,  0.8586404500000000,  0.4649909400000000 ]
  mass: 28.085500
- symbol: Si # 40
  position: [  0.3586404500000000,  0.8586404500000000,  0.9649909400000001 ]
  mass: 28.085500
- symbol: Ca # 41
  position: [  0.3312974800000000,  0.1687025200000000,  0.2482867750000000 ]
  mass: 40.078000
- symbol: Ca # 42
  position: [  0.3312974800000000,  0.1687025200000000,  0.7482867750000000 ]
  mass: 40.078000
- symbol: Ca # 43
  position: [  0.8312974800000000,  0.3312974800000000,  0.2517132250000000 ]
  mass: 40.078000
- symbol: Ca # 44
  position: [  0.8312974800000000,  0.3312974800000000,  0.7517132250000000 ]
  mass: 40.078000
- symbol: Ca # 45
  position: [  0.1687025200000000,  0.6687025200000000,  0.2517132250000000 ]
  mass: 40.078000
- symbol: Ca # 46
  position: [  0.1687025200000000,  0.6687025200000000,  0.7517132250000000 ]
  mass: 40.078000
- symbol: Ca # 47
  position: [  0.6687025200000000,  0.8312974800000000,  0.2482867750000000 ]
  mass: 40.078000
- symbol: Ca # 48
  position: [  0.6687025200000000,  0.8312974800000000,  0.7482867750000000 ]
  mass: 40.078000