  48   48
1 1
     9.322471999999994    -9.347541999999995    -0.343636000000000
    -9.351413000000001    31.025430000000004     5.785069000000001
    -0.344272500000000     5.780770000000001    13.902765500000001
1 2
     0.062648500000000    -0.029938500000000    -0.014272500000000
    -0.029633500000000     0.111734500000000    -0.008856500000000
    -0.014433000000000    -0.008793000000000    -0.392838500000000
1 3
    -0.120799000000000     0.291634000000000    -0.006969000000000
     0.291371000000000    -1.408342500000000     0.148512000000000
     0.007111000000000    -0.148720500000000     0.284245500000000
1 4
     0.047755000000000     0.026022500000000     0.011123000000000
     0.025581000000000    -0.065148500000000     0.011071000000000
    -0.011163500000000    -0.011210500000000    -0.171273000000000
1 5
     0.110116000000000    -0.074083500000000    -0.094071500000000
    -0.104075500000000    -0.178353500000000    -0.208417000000000
    -0.108596500000000    -0.270915000000000    -0.276505000000000
1 6
     0.183460500000000    -0.176855500000000     0.170653000000000
    -0.328749000000000    -0.589902000000000     0.613964500000000
     0.272464500000000     0.565018500000000    -0.162024000000000
1 7
    -0.178648500000000     0.074147000000000     0.270854500000000
     0.103975500000000     0.109583000000000    -0.108389500000000
     0.208498500000000    -0.094038000000000    -0.276452000000000
1 8
    -0.590129000000000     0.176931500000000    -0.565032000000000
     0.328659000000000     0.183031500000000     0.272603000000000
    -0.613980500000000     0.170621000000000    -0.162008000000000
1 9
    -1.523705999999999     2.802911499999999     0.244996000000000
     2.235073000000000    -1.523306000000000    -0.292136000000000
    -0.291920000000000     0.245045000000000     1.033692000000000
1 10
    -0.013091000000000    -0.018489500000000     0.009409500000000
     0.051379000000000    -0.012746500000000    -0.018031500000000
    -0.017862000000000     0.009244000000000    -0.475769000000000
1 11
    -0.392360000000000     0.058489000000000     0.002523000000000
    -0.058107000000000     0.121904500000000     0.040645500000000
    -0.002649000000000     0.040614500000000    -0.234218500000000
1 12
    -0.279915500000000    -0.145128500000000    -0.003117500000000
     0.145409000000000     0.200063500000000    -0.032518000000000
     0.003020500000000    -0.032358500000000     0.096841500000000
1 13
    -0.035481000000000     0.010954000000000    -0.055445500000000
    -0.011357000000000    -0.134684500000000     0.034276000000000
    -0.055463000000000    -0.034232500000000    -0.029450000000000
1 14
    -0.096758500000000     0.091973500000000     0.173205500000000
    -0.092306500000000    -0.341369500000000     0.012873500000000
     0.173214500000000    -0.012892500000000     0.103550500000000
1 15
    -0.342655000000000    -0.011978000000000    -0.027208500000000
    -0.106180000000000    -0.343034500000000     0.025805000000000
    -0.025996500000000     0.027293000000000     0.167686000000000
1 16
    -0.027942000000000     0.007801500000000    -0.010952500000000
    -0.014286500000000    -0.028340000000000    -0.000680500000000
     0.000658500000000     0.011111000000000    -0.131335000000000
1 17
     0.321553000000000     0.070728500000000    -0.155312500000000
     0.063629000000000     0.088677000000000     0.371479500000000
    -0.172696000000000     0.553255000000000    -1.085494000000000
1 18
     0.806665500000000     0.270181000000000     0.319249000000000
     0.281314500000000    -0.055067000000000    -0.986352000000000
     0.662816500000000    -1.902877000000000    -1.682760500000000
1 19
    -0.885320000000000     0.040563000000000     0.015063000000000
     0.139093500000000     0.212940500000000    -0.007439000000000
     0.009676000000000    -0.054576000000000     0.424376000000000
1 20
    -0.096708500000000    -0.011880000000000    -0.032076000000000
     0.025227000000000     0.054736000000000    -0.021068000000000
     0.013595500000000     0.014190500000000    -0.307898000000000
1 21
     0.474935000000000    -1.594738999999999    -0.158425000000000
    -1.447001000000000    -3.941002000000001    -0.615562500000000
    -0.006317500000000    -0.101516000000000     0.811883500000000
1 22
     0.076114500000000     0.041319000000000    -0.001308500000000
    -0.043386000000000    -0.055303500000000     0.001215500000000
     0.034602000000000     0.035918000000000    -0.328299500000000
1 23
    -0.239396000000000    -0.068788500000000    -0.161112000000000
    -0.034484500000000     0.010128000000000    -0.041114500000000
    -0.050423000000000    -0.158112500000000    -0.198440500000000
1 24
    -0.315787000000000     0.122906500000000     0.021146500000000
    -0.091634500000000     0.050504000000000     0.072340000000000
     0.010133500000000     0.015935000000000     0.127409000000000
1 25
     0.026794000000000    -0.042126000000000     0.102373000000000
    -0.032874500000000    -0.111858500000000     0.044061000000000
     0.023447000000000     0.063648000000000    -0.093229500000000
1 26
    -0.026260000000000     0.040848500000000    -0.151923000000000
    -0.138234000000000    -0.309190500000000    -0.179738000000000
    -0.114482000000000    -0.076122000000000     0.105376000000000
1 27
    -0.184580000000000    -0.228866500000000     0.082503500000000
    -0.441054500000000    -0.583449000000000     0.004702500000000
    -0.033628000000000    -0.129224500000000     0.362636500000000
1 28
    -0.019952500000000     0.014004500000000    -0.024510000000000
    -0.050041000000000    -0.034363000000000    -0.010499500000000
     0.016386500000000    -0.027393500000000    -0.284245000000000
1 29
     0.067832500000000     0.024263500000000     0.040573000000000
    -0.037060500000000     0.029073500000000    -0.013580500000000
     0.011104500000000    -0.073041000000000     0.171597000000000
1 30
     0.554380000000000    -0.031559500000000    -0.331358000000000
    -0.311877000000000     0.165584000000000     0.282209500000000
    -0.146998000000000     0.045663500000000    -0.192372000000000
1 31
    -0.141393500000000    -0.024986000000000    -0.058281500000000
    -0.030775500000000    -0.029288500000000     0.141325500000000
    -0.022868500000000     0.083702000000000     0.356961000000000
1 32
    -1.640332499999999     1.759847499999999    -1.396985499999999
     1.779082500000000    -4.774791500000001     3.358943000000000
    -1.410134500000000     3.200344000000000    -3.473157500000001
1 33
     0.335295500000000    -0.021926500000000     0.002757000000000
    -0.048629000000000    -0.124936000000000     0.039487500000000
    -0.068137500000000     0.015285500000000     0.400597000000000
1 34
     0.874689500000000     0.108283500000000     0.199066000000000
    -0.219294000000000    -0.349679500000000    -0.018235000000000
     0.312783000000000     0.106496000000000    -0.604324000000000
1 35
     0.461387500000000     0.037104000000000     0.279673000000000
     0.956891500000000     1.369215500000000     0.302732000000000
     0.180944000000000     0.128097500000000    -0.211934000000000
1 36
    -0.037220000000000    -0.053738500000000    -0.082647000000000
     0.019524500000000     0.088631000000000    -0.020900000000000
    -0.008222000000000    -0.001920500000000     0.236332000000000
1 37
     0.006355000000000     0.032844000000000     0.087712000000000
     0.148708500000000     0.117507500000000     0.059167500000000
     0.124234500000000     0.158977000000000     0.341791500000000
1 38
     0.165755500000000    -0.030320500000000    -0.357303500000000
     0.583366000000000     0.491996000000000    -0.281071000000000
    -0.379776000000000    -0.143948000000000    -0.529995500000000
1 39
    -6.173844499999997     5.218105499999997     2.684083499999999
     5.315024000000001   -18.617148500000003    -8.180946000000002
     2.670401000000000    -7.895365500000000    -8.661680000000000
1 40
    -0.033914500000000     0.008025000000000     0.073359000000000
     0.054877000000000    -0.044505500000000    -0.055463500000000
    -0.022574500000000     0.030824500000000     0.900210000000000
1 41
    -0.455025500000000    -0.147055500000000     0.076568500000000
    -0.095905000000000     0.768784000000000    -0.259117500000000
     0.008235500000000     0.032541500000000    -0.245046500000000
1 42
    -0.088629500000000    -0.031381500000000    -0.055195500000000
    -0.065101000000000     0.387282000000000     0.014562000000000
    -0.011375500000000     0.242379000000000     0.384538000000000
1 43
     0.321891000000000    -0.108926500000000    -0.094654500000000
    -0.037630500000000     0.186715000000000     0.083791000000000
    -0.025537500000000     0.122138000000000    -0.146907000000000
1 44
     0.147985500000000    -0.110016000000000     0.074560000000000
     0.028520000000000     0.121835500000000    -0.033015500000000
     0.020543000000000    -0.062897500000000     0.209181000000000
1 45
    -0.940092500000000     0.383626500000000     0.000922500000000
     0.176824500000000    -1.035884500000000    -0.005066000000000
    -0.147010500000000     0.048448500000000    -0.796305500000000
1 46
     0.093897500000000     0.012541000000000    -0.128589000000000
    -0.081639000000000    -0.336742000000000    -0.023506500000000
    -0.317697500000000    -0.196058000000000     0.495237000000000
1 47
     0.488681500000000     0.427429500000000    -0.802611000000000
     0.389900000000000    -0.709060500000000    -0.368423500000000
    -0.633601000000000    -0.371933000000000    -0.157610500000000
1 48
    -0.070724500000000     0.156839500000000     0.170623000000000
     0.159299500000000    -0.157859000000000     0.069291000000000
     0.293946000000000     0.060582500000000     0.394663000000000
2 1
     0.062648500000000    -0.029938500000000    -0.014272500000000
    -0.029633500000000     0.111734500000000    -0.008856500000000
    -0.014433000000000    -0.008793000000000    -0.392838500000000
2 2
     9.322471999999994    -9.347541999999995    -0.343636000000000
    -9.351413000000001    31.025430000000004     5.785069000000001
    -0.344272500000000     5.780770000000001    13.902765500000001
2 3
     0.047755000000000     0.026022500000000     0.011123000000000
     0.025581000000000    -0.065148500000000     0.011071000000000
    -0.011163500000000    -0.011210500000000    -0.171273000000000
2 4
    -0.120799000000000     0.291634000000000    -0.006969000000000
     0.291371000000000    -1.408342500000000     0.148512000000000
     0.007111000000000    -0.148720500000000     0.284245500000000
2 5
     0.183460500000000    -0.176855500000000     0.170653000000000
    -0.328749000000000    -0.589902000000000     0.613964500000000
     0.272464500000000     0.565018500000000    -0.162024000000000
2 6
     0.110116000000000    -0.074083500000000    -0.094071500000000
    -0.104075500000000    -0.178353500000000    -0.208417000000000
    -0.108596500000000    -0.270915000000000    -0.276505000000000
2 7
    -0.590129000000000     0.176931500000000    -0.565032000000000
     0.328659000000000     0.183031500000000     0.272603000000000
    -0.613980500000000     0.170621000000000    -0.162008000000000
2 8
    -0.178648500000000     0.074147000000000     0.270854500000000
     0.103975500000000     0.109583000000000    -0.108389500000000
     0.208498500000000    -0.094038000000000    -0.276452000000000
2 9
    -0.013091000000000    -0.018489500000000     0.009409500000000
     0.051379000000000    -0.012746500000000    -0.018031500000000
    -0.017862000000000     0.009244000000000    -0.475769000000000
2 10
    -1.523705999999999     2.802911499999999     0.244996000000000
     2.235073000000000    -1.523306000000000    -0.292136000000000
    -0.291920000000000     0.245045000000000     1.033692000000000
2 11
    -0.279915500000000    -0.145128500000000    -0.003117500000000
     0.145409000000000     0.200063500000000    -0.032518000000000
     0.003020500000000    -0.032358500000000     0.096841500000000
2 12
    -0.392360000000000     0.058489000000000     0.002523000000000
    -0.058107000000000     0.121904500000000     0.040645500000000
    -0.002649000000000     0.040614500000000    -0.234218500000000
2 13
    -0.096758500000000     0.091973500000000     0.173205500000000
    -0.092306500000000    -0.341369500000000     0.012873500000000
     0.173214500000000    -0.012892500000000     0.103550500000000
2 14
    -0.035481000000000     0.010954000000000    -0.055445500000000
    -0.011357000000000    -0.134684500000000     0.034276000000000
    -0.055463000000000    -0.034232500000000    -0.029450000000000
2 15
    -0.027942000000000     0.007801500000000    -0.010952500000000
    -0.014286500000000    -0.028340000000000    -0.000680500000000
     0.000658500000000     0.011111000000000    -0.131335000000000
2 16
    -0.342655000000000    -0.011978000000000    -0.027208500000000
    -0.106180000000000    -0.343034500000000     0.025805000000000
    -0.025996500000000     0.027293000000000     0.167686000000000
2 17
     0.806665500000000     0.270181000000000     0.319249000000000
     0.281314500000000    -0.055067000000000    -0.986352000000000
     0.662816500000000    -1.902877000000000    -1.682760500000000
2 18
     0.321553000000000     0.070728500000000    -0.155312500000000
     0.063629000000000     0.088677000000000     0.371479500000000
    -0.172696000000000     0.553255000000000    -1.085494000000000
2 19
    -0.096708500000000    -0.011880000000000    -0.032076000000000
     0.025227000000000     0.054736000000000    -0.021068000000000
     0.013595500000000     0.014190500000000    -0.307898000000000
2 20
    -0.885320000000000     0.040563000000000     0.015063000000000
     0.139093500000000     0.212940500000000    -0.007439000000000
     0.009676000000000    -0.054576000000000     0.424376000000000
2 21
     0.076114500000000     0.041319000000000    -0.001308500000000
    -0.043386000000000    -0.055303500000000     0.001215500000000
     0.034602000000000     0.035918000000000    -0.328299500000000
2 22
     0.474935000000000    -1.594738999999999    -0.158425000000000
    -1.447001000000000    -3.941002000000001    -0.615562500000000
    -0.006317500000000    -0.101516000000000     0.811883500000000
2 23
    -0.315787000000000     0.122906500000000     0.021146500000000
    -0.091634500000000     0.050504000000000     0.072340000000000
     0.010133500000000     0.015935000000000     0.127409000000000
2 24
    -0.239396000000000    -0.068788500000000    -0.161112000000000
    -0.034484500000000     0.010128000000000    -0.041114500000000
    -0.050423000000000    -0.158112500000000    -0.198440500000000
2 25
    -0.026260000000000     0.040848500000000    -0.151923000000000
    -0.138234000000000    -0.309190500000000    -0.179738000000000
    -0.114482000000000    -0.076122000000000     0.105376000000000
2 26
     0.026794000000000    -0.042126000000000     0.102373000000000
    -0.032874500000000    -0.111858500000000     0.044061000000000
     0.023447000000000     0.063648000000000    -0.093229500000000
2 27
    -0.019952500000000     0.014004500000000    -0.024510000000000
    -0.050041000000000    -0.034363000000000    -0.010499500000000
     0.016386500000000    -0.027393500000000    -0.284245000000000
2 28
    -0.184580000000000    -0.228866500000000     0.082503500000000
    -0.441054500000000    -0.583449000000000     0.004702500000000
    -0.033628000000000    -0.129224500000000     0.362636500000000
2 29
     0.554380000000000    -0.031559500000000    -0.331358000000000
    -0.311877000000000     0.165584000000000     0.282209500000000
    -0.146998000000000     0.045663500000000    -0.192372000000000
2 30
     0.067832500000000     0.024263500000000     0.040573000000000
    -0.037060500000000     0.029073500000000    -0.013580500000000
     0.011104500000000    -0.073041000000000     0.171597000000000
2 31
    -1.640332499999999     1.759847499999999    -1.396985499999999
     1.779082500000000    -4.774791500000001     3.358943000000000
    -1.410134500000000     3.200344000000000    -3.473157500000001
2 32
    -0.141393500000000    -0.024986000000000    -0.058281500000000
    -0.030775500000000    -0.029288500000000     0.141325500000000
    -0.022868500000000     0.083702000000000     0.356961000000000
2 33
     0.874689500000000     0.108283500000000     0.199066000000000
    -0.219294000000000    -0.349679500000000    -0.018235000000000
     0.312783000000000     0.106496000000000    -0.604324000000000
2 34
     0.335295500000000    -0.021926500000000     0.002757000000000
    -0.048629000000000    -0.124936000000000     0.039487500000000
    -0.068137500000000     0.015285500000000     0.400597000000000
2 35
    -0.037220000000000    -0.053738500000000    -0.082647000000000
     0.019524500000000     0.088631000000000    -0.020900000000000
    -0.008222000000000    -0.001920500000000     0.236332000000000
2 36
     0.461387500000000     0.037104000000000     0.279673000000000
     0.956891500000000     1.369215500000000     0.302732000000000
     0.180944000000000     0.128097500000000    -0.211934000000000
2 37
     0.165755500000000    -0.030320500000000    -0.357303500000000
     0.583366000000000     0.491996000000000    -0.281071000000000
    -0.379776000000000    -0.143948000000000    -0.529995500000000
2 38
     0.006355000000000     0.032844000000000     0.087712000000000
     0.148708500000000     0.117507500000000     0.059167500000000
     0.124234500000000     0.158977000000000     0.341791500000000
2 39
    -0.033914500000000     0.008025000000000     0.073359000000000
     0.054877000000000    -0.044505500000000    -0.055463500000000
    -0.022574500000000     0.030824500000000     0.900210000000000
2 40
    -6.173844499999997     5.218105499999997     2.684083499999999
     5.315024000000001   -18.617148500000003    -8.180946000000002
     2.670401000000000    -7.895365500000000    -8.661680000000000
2 41
    -0.088629500000000    -0.031381500000000    -0.055195500000000
    -0.065101000000000     0.387282000000000     0.014562000000000
    -0.011375500000000     0.242379000000000     0.384538000000000
2 42
    -0.455025500000000    -0.147055500000000     0.076568500000000
    -0.095905000000000     0.768784000000000    -0.259117500000000
     0.008235500000000     0.032541500000000    -0.245046500000000
2 43
     0.147985500000000    -0.110016000000000     0.074560000000000
     0.028520000000000     0.121835500000000    -0.033015500000000
     0.020543000000000    -0.062897500000000     0.209181000000000
2 44
     0.321891000000000    -0.108926500000000    -0.094654500000000
    -0.037630500000000     0.186715000000000     0.083791000000000
    -0.025537500000000     0.122138000000000    -0.146907000000000
2 45
     0.093897500000000     0.012541000000000    -0.128589000000000
    -0.081639000000000    -0.336742000000000    -0.023506500000000
    -0.317697500000000    -0.196058000000000     0.495237000000000
2 46
    -0.940092500000000     0.383626500000000     0.000922500000000
     0.176824500000000    -1.035884500000000    -0.005066000000000
    -0.147010500000000     0.048448500000000    -0.796305500000000
2 47
    -0.070724500000000     0.156839500000000     0.170623000000000
     0.159299500000000    -0.157859000000000     0.069291000000000
     0.293946000000000     0.060582500000000     0.394663000000000
2 48
     0.488681500000000     0.427429500000000    -0.802611000000000
     0.389900000000000    -0.709060500000000    -0.368423500000000
    -0.633601000000000    -0.371933000000000    -0.157610500000000
3 1
    -0.120799000000000     0.291634000000000     0.006969000000000
     0.291371000000000    -1.408342500000000    -0.148512000000000
    -0.007111000000000     0.148720500000000     0.284245500000000
3 2
     0.047755000000000     0.026022500000000    -0.011123000000000
     0.025581000000000    -0.065148500000000    -0.011071000000000
     0.011163500000000     0.011210500000000    -0.171273000000000
3 3
     9.322471999999994    -9.347541999999995     0.343636000000000
    -9.351413000000001    31.025430000000004    -5.785069000000001
     0.344272500000000    -5.780770000000001    13.902765500000001
3 4
     0.062648500000000    -0.029938500000000     0.014272500000000
    -0.029633500000000     0.111734500000000     0.008856500000000
     0.014433000000000     0.008793000000000    -0.392838500000000
3 5
    -0.178648500000000     0.074147000000000    -0.270854500000000
     0.103975500000000     0.109583000000000     0.108389500000000
    -0.208498500000000     0.094038000000000    -0.276452000000000
3 6
    -0.590129000000000     0.176931500000000     0.565032000000000
     0.328659000000000     0.183031500000000    -0.272603000000000
     0.613980500000000    -0.170621000000000    -0.162008000000000
3 7
     0.110116000000000    -0.074083500000000     0.094071500000000
    -0.104075500000000    -0.178353500000000     0.208417000000000
     0.108596500000000     0.270915000000000    -0.276505000000000
3 8
     0.183460500000000    -0.176855500000000    -0.170653000000000
    -0.328749000000000    -0.589902000000000    -0.613964500000000
    -0.272464500000000    -0.565018500000000    -0.162024000000000
3 9
    -0.342655000000000    -0.011978000000000     0.027208500000000
    -0.106180000000000    -0.343034500000000    -0.025805000000000
     0.025996500000000    -0.027293000000000     0.167686000000000
3 10
    -0.027942000000000     0.007801500000000     0.010952500000000
    -0.014286500000000    -0.028340000000000     0.000680500000000
    -0.000658500000000    -0.011111000000000    -0.131335000000000
3 11
    -0.035481000000000     0.010954000000000     0.055445500000000
    -0.011357000000000    -0.134684500000000    -0.034276000000000
     0.055463000000000     0.034232500000000    -0.029450000000000
3 12
    -0.096758500000000     0.091973500000000    -0.173205500000000
    -0.092306500000000    -0.341369500000000    -0.012873500000000
    -0.173214500000000     0.012892500000000     0.103550500000000
3 13
    -0.392360000000000     0.058489000000000    -0.002523000000000
    -0.058107000000000     0.121904500000000    -0.040645500000000
     0.002649000000000    -0.040614500000000    -0.234218500000000
3 14
    -0.279915500000000    -0.145128500000000     0.003117500000000
     0.145409000000000     0.200063500000000     0.032518000000000
    -0.003020500000000     0.032358500000000     0.096841500000000
3 15
    -1.523705999999999     2.802911499999999    -0.244996000000000
     2.235073000000000    -1.523306000000000     0.292136000000000
     0.291920000000000    -0.245045000000000     1.033692000000000
3 16
    -0.013091000000000    -0.018489500000000    -0.009409500000000
     0.051379000000000    -0.012746500000000     0.018031500000000
     0.017862000000000    -0.009244000000000    -0.475769000000000
3 17
     0.026794000000000    -0.042126000000000    -0.102373000000000
    -0.032874500000000    -0.111858500000000    -0.044061000000000
    -0.023447000000000    -0.063648000000000    -0.093229500000000
3 18
    -0.026260000000000     0.040848500000000     0.151923000000000
    -0.138234000000000    -0.309190500000000     0.179738000000000
     0.114482000000000     0.076122000000000     0.105376000000000
3 19
    -0.184580000000000    -0.228866500000000    -0.082503500000000
    -0.441054500000000    -0.583449000000000    -0.004702500000000
     0.033628000000000     0.129224500000000     0.362636500000000
3 20
    -0.019952500000000     0.014004500000000     0.024510000000000
    -0.050041000000000    -0.034363000000000     0.010499500000000
    -0.016386500000000     0.027393500000000    -0.284245000000000
3 21
     0.474935000000000    -1.594738999999999     0.158425000000000
    -1.447001000000000    -3.941002000000001     0.615562500000000
     0.006317500000000     0.101516000000000     0.811883500000000
3 22
     0.076114500000000     0.041319000000000     0.001308500000000
    -0.043386000000000    -0.055303500000000    -0.001215500000000
    -0.034602000000000    -0.035918000000000    -0.328299500000000
3 23
    -0.239396000000000    -0.068788500000000     0.161112000000000
    -0.034484500000000     0.010128000000000     0.041114500000000
     0.050423000000000     0.158112500000000    -0.198440500000000
3 24
    -0.315787000000000     0.122906500000000    -0.021146500000000
    -0.091634500000000     0.050504000000000    -0.072340000000000
    -0.010133500000000    -0.015935000000000     0.127409000000000
3 25
     0.321553000000000     0.070728500000000     0.155312500000000
     0.063629000000000     0.088677000000000    -0.371479500000000
     0.172696000000000    -0.553255000000000    -1.085494000000000
3 26
     0.806665500000000     0.270181000000000    -0.319249000000000
     0.281314500000000    -0.055067000000000     0.986352000000000
    -0.662816500000000     1.902877000000000    -1.682760500000000
3 27
    -0.885320000000000     0.040563000000000    -0.015063000000000
     0.139093500000000     0.212940500000000     0.007439000000000
    -0.009676000000000     0.054576000000000     0.424376000000000
3 28
    -0.096708500000000    -0.011880000000000     0.032076000000000
     0.025227000000000     0.054736000000000     0.021068000000000
    -0.013595500000000    -0.014190500000000    -0.307898000000000
3 29
     0.067832500000000     0.024263500000000    -0.040573000000000
    -0.037060500000000     0.029073500000000     0.013580500000000
    -0.011104500000000     0.073041000000000     0.171597000000000
3 30
     0.554380000000000    -0.031559500000000     0.331358000000000
    -0.311877000000000     0.165584000000000    -0.282209500000000
     0.146998000000000    -0.045663500000000    -0.192372000000000
3 31
    -0.141393500000000    -0.024986000000000     0.058281500000000
    -0.030775500000000    -0.029288500000000    -0.141325500000000
     0.022868500000000    -0.083702000000000     0.356961000000000
3 32
    -1.640332499999999     1.759847499999999     1.396985499999999
     1.779082500000000    -4.774791500000001    -3.358943000000000
     1.410134500000000    -3.200344000000000    -3.473157500000001
3 33
     0.006355000000000     0.032844000000000    -0.087712000000000
     0.148708500000000     0.117507500000000    -0.059167500000000
    -0.124234500000000    -0.158977000000000     0.341791500000000
3 34
     0.165755500000000    -0.030320500000000     0.357303500000000
     0.583366000000000     0.491996000000000     0.281071000000000
     0.379776000000000     0.143948000000000    -0.529995500000000
3 35
    -6.173844499999997     5.218105499999997    -2.684083499999999
     5.315024000000001   -18.617148500000003     8.180946000000002
    -2.670401000000000     7.895365500000000    -8.661680000000000
3 36
    -0.033914500000000     0.008025000000000    -0.073359000000000
     0.054877000000000    -0.044505500000000     0.055463500000000
     0.022574500000000    -0.030824500000000     0.900210000000000
3 37
     0.335295500000000    -0.021926500000000    -0.002757000000000
    -0.048629000000000    -0.124936000000000    -0.039487500000000
     0.068137500000000    -0.015285500000000     0.400597000000000
3 38
     0.874689500000000     0.108283500000000    -0.199066000000000
    -0.219294000000000    -0.349679500000000     0.018235000000000
    -0.312783000000000    -0.106496000000000    -0.604324000000000
3 39
     0.461387500000000     0.037104000000000    -0.279673000000000
     0.956891500000000     1.369215500000000    -0.302732000000000
    -0.180944000000000    -0.128097500000000    -0.211934000000000
3 40
    -0.037220000000000    -0.053738500000000     0.082647000000000
     0.019524500000000     0.088631000000000     0.020900000000000
     0.008222000000000     0.001920500000000     0.236332000000000
3 41
     0.488681500000000     0.427429500000000     0.802611000000000
     0.389900000000000    -0.709060500000000     0.368423500000000
     0.633601000000000     0.371933000000000    -0.157610500000000
3 42
    -0.070724500000000     0.156839500000000    -0.170623000000000
     0.159299500000000    -0.157859000000000    -0.069291000000000
    -0.293946000000000    -0.060582500000000     0.394663000000000
3 43
    -0.940092500000000     0.383626500000000    -0.000922500000000
     0.176824500000000    -1.035884500000000     0.005066000000000
     0.147010500000000    -0.048448500000000    -0.796305500000000
3 44
     0.093897500000000     0.012541000000000     0.128589000000000
    -0.081639000000000    -0.336742000000000     0.023506500000000
     0.317697500000000     0.196058000000000     0.495237000000000
3 45
     0.321891000000000    -0.108926500000000     0.094654500000000
    -0.037630500000000     0.186715000000000    -0.083791000000000
     0.025537500000000    -0.122138000000000    -0.146907000000000
3 46
     0.147985500000000    -0.110016000000000    -0.074560000000000
     0.028520000000000     0.121835500000000     0.033015500000000
    -0.020543000000000     0.062897500000000     0.209181000000000
3 47
    -0.455025500000000    -0.147055500000000    -0.076568500000000
    -0.095905000000000     0.768784000000000     0.259117500000000
    -0.008235500000000    -0.032541500000000    -0.245046500000000
3 48
    -0.088629500000000    -0.031381500000000     0.055195500000000
    -0.065101000000000     0.387282000000000    -0.014562000000000
     0.011375500000000    -0.242379000000000     0.384538000000000
4 1
     0.047755000000000     0.026022500000000    -0.011123000000000
     0.025581000000000    -0.065148500000000    -0.011071000000000
     0.011163500000000     0.011210500000000    -0.171273000000000
4 2
    -0.120799000000000     0.291634000000000     0.006969000000000
     0.291371000000000    -1.408342500000000    -0.148512000000000