natom:   44
displacements:
- atom:    1
  displacement:
    [   0.0100000000000000,  0.0000000000000000,  0.0000000000000000 ]
- atom:    1
  displacement:
    [  -0.0100000000000000,  0.0000000000000000,  0.0000000000000000 ]
- atom:    1
  displacement:
    [   0.0000000000000000,  0.0000000000000000,  0.0100000000000000 ]
- atom:    1
  displacement:
    [   0.0000000000000000,  0.0000000000000000, -0.0100000000000000 ]
- atom:   13
  displacement:
    [   0.0100000000000000,  0.0000000000000000,  0.0000000000000000 ]
- atom:   13
  displacement:
    [  -0.0100000000000000,  0.0000000000000000,  0.0000000000000000 ]
- atom:   13
  displacement:
    [   0.0000000000000000,  0.0000000000000000,  0.0100000000000000 ]
- atom:   13
  displacement:
    [   0.0000000000000000,  0.0000000000000000, -0.0100000000000000 ]
- atom:   25
  displacement:
    [   0.0100000000000000,  0.0000000000000000,  0.0000000000000000 ]
- atom:   25
  displacement:
    [   0.0000000000000000,  0.0000000000000000,  0.0100000000000000 ]
- atom:   25
  displacement:
    [   0.0000000000000000,  0.0000000000000000, -0.0100000000000000 ]
- atom:   29
  displacement:
    [   0.0100000000000000,  0.0000000000000000,  0.0000000000000000 ]
- atom:   29
  displacement:
    [   0.0000000000000000,  0.0000000000000000,  0.0100000000000000 ]
- atom:   29
  displacement:
    [   0.0000000000000000,  0.0000000000000000, -0.0100000000000000 ]
- atom:   33
  displacement:
    [   0.0100000000000000,  0.0000000000000000,  0.0000000000000000 ]
- atom:   33
  displacement:
    [  -0.0100000000000000,  0.0000000000000000,  0.0000000000000000 ]
- atom:   33
  displacement:
    [   0.0000000000000000,  0.0000000000000000,  0.0100000000000000 ]
- atom:   33
  displacement:
    [   0.0000000000000000,  0.0000000000000000, -0.0100000000000000 ]
lattice:
- [     9.9069518199999997,     0.0000000000000000,     0.0000000000000000 ] # a
- [    -4.9534759099999999,     8.5796719499999998,     0.0000000000000000 ] # b
- [     0.0000000000000000,     0.0000000000000000,    14.7040978199999994 ] # c
atoms:
- symbol: Na # 1
  position: [  0.2918028200000000,  0.1459014200000000,  0.2205312300000000 ]
  mass: 22.989769
- symbol: Na # 2
  position: [  0.2918028200000000,  0.1459014200000000,  0.7205312300000000 ]
  mass: 22.989769
- symbol: Na # 3
  position: [  0.1459014200000000,  0.8540985800000001,  0.4705312300000000 ]
  mass: 22.989769
- symbol: Na # 4
  position: [  0.1459014200000000,  0.8540985800000001,  0.9705312300000000 ]
  mass: 22.989769
- symbol: Na # 5
  position: [  0.1459014200000000,  0.2918028200000000,  0.4705312300000000 ]
  mass: 22.989769
- symbol: Na # 6
  position: [  0.1459014200000000,  0.2918028200000000,  0.9705312300000000 ]
  mass: 22.989769
- symbol: Na # 7
  position: [  0.8540985800000001,  0.7081971800000000,  0.2205312300000000 ]
  mass: 22.989769
- symbol: Na # 8
  position: [  0.8540985800000001,  0.7081971800000000,  0.7205312300000000 ]
  mass: 22.989769
- symbol: Na # 9
  position: [  0.8540985800000001,  0.1459014200000000,  0.2205312300000000 ]
  mass: 22.989769
- symbol: Na # 10
  position: [  0.8540985800000001,  0.1459014200000000,  0.7205312300000000 ]
  mass: 22.989769
- symbol: Na # 11
  position: [  0.7081971800000000,  0.8540985800000001,  0.4705312300000000 ]
  mass: 22.989769
- symbol: Na # 12
  position: [  0.7081971800000000,  0.8540985800000001,  0.9705312300000000 ]
  mass: 22.989769
- symbol: Na # 13
  position: [  0.0441359300000000,  0.5220679600000000,  0.3177555300000000 ]
  mass: 22.989769
- symbol: Na # 14
  position: [  0.0441359300000000,  0.5220679600000000,  0.8177555300000000 ]
  mass: 22.989769
- symbol: Na # 15
  position: [  0.5220679600000000,  0.4779320400000000,  0.0677555300000000 ]
  mass: 22.989769
- symbol: Na # 16
  position: [  0.5220679600000000,  0.4779320400000000,  0.5677555300000000 ]
  mass: 22.989769
- symbol: Na # 17
  position: [  0.5220679600000000,  0.0441359300000000,  0.0677555300000000 ]
  mass: 22.989769
- symbol: Na # 18
  position: [  0.5220679600000000,  0.0441359300000000,  0.5677555300000000 ]
  mass: 22.989769
- symbol: Na # 19
  position: [  0.4779320400000000,  0.9558640700000000,  0.3177555300000000 ]
  mass: 22.989769
- symbol: Na # 20
  position: [  0.4779320400000000,  0.9558640700000000,  0.8177555300000000 ]
  mass: 22.989769
- symbol: Na # 21
  position: [  0.4779320400000000,  0.5220679600000000,  0.3177555300000000 ]
  mass: 22.989769
- symbol: Na # 22
  position: [  0.4779320400000000,  0.5220679600000000,  0.8177555300000000 ]
  mass: 22.989769
- symbol: Na # 23
  position: [  0.9558640700000000,  0.4779320400000000,  0.0677555300000000 ]
  mass: 22.989769
- symbol: Na # 24
  position: [  0.9558640700000000,  0.4779320400000000,  0.5677555300000000 ]
  mass: 22.989769
- symbol: Mn # 25
  position: [  0.6666666700000000,  0.3333333300000000,  0.3792876100000000 ]
  mass: 54.938045
- symbol: Mn # 26
  position: [  0.6666666700000000,  0.3333333300000000,  0.8792876100000000 ]
  mass: 54.938045
- symbol: Mn # 27
  position: [  0.3333333300000000,  0.6666666700000000,  0.1292876100000000 ]
  mass: 54.938045
- symbol: Mn # 28
  position: [  0.3333333300000000,  0.6666666700000000,  0.6292876100000000 ]
  mass: 54.938045
- symbol: Te # 29
  position: [  0.6666666700000000,  0.3333333300000000,  0.2079488650000000 ]
  mass: 127.600000
- symbol: Te # 30
  position: [  0.6666666700000000,  0.3333333300000000,  0.7079488650000000 ]
  mass: 127.600000
- symbol: Te # 31
  position: [  0.3333333300000000,  0.6666666700000000,  0.4579488650000000 ]
  mass: 127.600000
- symbol: Te # 32
  position: [  0.3333333300000000,  0.6666666700000000,  0.9579488650000000 ]
  mass: 127.600000
- symbol: Te # 33
  position: [  0.3849248600000000,  0.1924624200000000,  0.4281844100000000 ]
  mass: 127.600000
- symbol: Te # 34
  position: [  0.3849248600000000,  0.1924624200000000,  0.9281844100000001 ]
  mass: 127.600000
- symbol: Te # 35
  position: [  0.1924624200000000,  0.8075375800000000,  0.1781844100000000 ]
  mass: 127.600000
- symbol: Te # 36
  position: [  0.1924624200000000,  0.8075375800000000,  0.6781844100000000 ]
  mass: 127.600000
- symbol: Te # 37
  position: [  0.1924624200000000,  0.3849248600000000,  0.1781844100000000 ]
  mass: 127.600000
- symbol: Te # 38
  position: [  0.1924624200000000,  0.3849248600000000,  0.6781844100000000 ]
  mass: 127.600000
- symbol: Te # 39
  position: [  0.8075375800000000,  0.6150751400000000,  0.4281844100000000 ]
  mass: 127.600000
- symbol: Te # 40
  position: [  0.8075375800000000,  0.6150751400000000,  0.9281844100000001 ]
  mass: 127.600000
- symbol: Te # 41
  position: [  0.8075375800000000,  0.1924624200000000,  0.4281844100000000 ]
  mass: 127.600000
- symbol: Te # 42
  position: [  0.8075375800000000,  0.1924624200000000,  0.9281844100000001 ]
  mass: 127.600000
- symbol: Te # 43
  position: [  0.6150751400000000,  0.8075375800000000,  0.1781844100000000 ]
  mass: 127.600000
- symbol: Te # 44
  position: [  0.6150751400000000,  0.8075375800000000,  0.6781844100000000 ]
  mass: 127.600000