  44   44
1 1
     1.559929000000000    -0.760013000000000     0.226082000000000
    -0.760013000033392     2.437516420294509     0.130528503561796
     0.226262031781178     0.130632444953385     1.039953000000000
1 2
     0.001546000000000     0.003522000000000     0.003009500000000
     0.003522000000155    -0.002520855296261     0.001737535635164
     0.002128922610637     0.001229134042308    -0.033165500000000
1 3
     0.005777500000000    -0.001898500000000    -0.000865000000000
     0.005574494652852    -0.007105503168936     0.039878737794342
     0.002263483352580     0.047480469667246    -0.033908000000000
1 4
     0.005014000000000    -0.005132000000000     0.002316500000000
     0.001296139705664    -0.006860698359743    -0.047392662872875
    -0.002001559323587    -0.039080202597103    -0.033973000000000
1 5
    -0.002293000000000     0.010234000000000     0.034103500000000
     0.002761005347514     0.000964996831064    -0.020688480871461
     0.042251034592645    -0.021780000749288    -0.033908000000000
1 6
    -0.005553000000000     0.007397000000000    -0.039885000000000
     0.000968860294435     0.003706301640257     0.025702479284348
    -0.034845227896671     0.017806700077182    -0.033973000000000
1 7
     0.002559500000000    -0.078958500000000    -0.011317500000000
    -0.052952134281196    -0.073617193121781     0.001052220865621
    -0.006772962081901     0.008829975616371     0.012105000000000
1 8
    -0.000028500000000    -0.003227000000000     0.002824500000000
     0.001401345776478    -0.001196458042544     0.000099015571168
     0.001176355876125    -0.001564870742344    -0.000835500000000
1 9
    -0.111692000000000     0.013011000000000    -0.004747500000000
    -0.012995365721702     0.040634306878219    -0.010327352940356
     0.004260502157792    -0.010280545029852     0.012105000000000
1 10
    -0.001695000000000     0.002363500000000     0.001498000000000
    -0.002264845776516     0.000470041957456     0.002396580967459
    -0.000767039878476     0.001801189443765    -0.000835500000000
1 11
     0.000030500000000    -0.001781500000000    -0.001075500000000
    -0.001781500000078     0.002087599009168    -0.000620940214527
    -0.000906932149446    -0.000523617520608    -0.001625500000000
1 12
     0.000824000000000    -0.001205500000000     0.001000500000000
    -0.001205500000053     0.002215991499047     0.000577638944337
     0.002205941675872     0.001273601020353    -0.001638000000000
1 13
    -0.036681500000000     0.005854500000000    -0.017896500000000
     0.005854500000257    -0.043441694302090    -0.010332549092779
    -0.001473993809318    -0.000851010722575     0.022524000000000
1 14
    -0.001181000000000    -0.000712000000000     0.001791000000000
    -0.000712000000031    -0.000358853216656     0.001034034332141
    -0.000211077549632    -0.000121865680097    -0.000789500000000
1 15
     0.037229000000000    -0.030610000000000     0.031959500000000
    -0.038204201971396    -0.140591768634508     0.134186306192328
     0.027927407739955     0.143752514664574    -0.071920000000000
1 16
    -0.001370000000000    -0.004805000000000    -0.003435000000000
     0.000730154408678     0.001644613199126     0.002451429243033
     0.003123448926528    -0.028904308113187    -0.018675500000000
1 17
    -0.125934000000000     0.055998000000000     0.132188500000000
     0.063592201972511     0.022571231365492    -0.039415414203307
     0.138457033430129    -0.047690412768171    -0.071920000000000
1 18
    -0.000873500000000     0.000443500000000     0.000405500000000
    -0.005091654408870     0.001148113199126    -0.004200511883581
    -0.023470140642119     0.017157140174331    -0.018675500000000
1 19
    -0.181311000000000     0.134323500000000    -0.124606500000000
     0.139536554135021    -0.026599509308407     0.068460751546337
    -0.119398871107545     0.072304406064094     0.000165500000000
1 20
    -0.002110500000000     0.000863000000000     0.002756000000000
    -0.002113058375772     0.002570554873050     0.001930659300213
     0.010692594443995    -0.007608609788440    -0.004846000000000
1 21
     0.053307500000000     0.004079500000000    -0.003014500000000
    -0.001133554128940    -0.261218009308407    -0.142142770252205
     0.002918016904654    -0.139554658592093     0.000165500000000
1 22
     0.000859000000000    -0.003827500000000     0.003050000000000
    -0.000851441624358    -0.000398945126950     0.001421436362776
    -0.001242952142419     0.013064363314881    -0.004846000000000
1 23
    -0.030496500000000     0.011577500000000     0.023578500000000
     0.011577500000509    -0.043865045483379     0.013613053322387
     0.002185587029800     0.001261849259965    -0.013371500000000
1 24
     0.000050500000000    -0.000300000000000     0.000512000000000
    -0.000300000000013     0.000396910161521     0.000295603337832
    -0.004283465411803    -0.002473059908515    -0.004474000000000
1 25
    -0.002526500000000     0.022054000000000    -0.118669000000000
     0.022054000000969    -0.027992265673975    -0.068513579095969
    -0.129898528604524    -0.074996950455511     0.064146500000000
1 26
    -0.004133000000000     0.000673500000000     0.019090500000000
     0.000673500000030    -0.004910690812616     0.011021905314207
     0.045226486165707     0.026111523961698     0.006930000000000
1 27
    -0.037362000000000     0.148986500000000     0.010124000000000
     0.148986500006546    -0.209396791765020     0.005845094125404
     0.025429025982970     0.014681454996175    -0.033135000000000
1 28
    -0.001663000000000     0.002273000000000    -0.009346000000000
     0.002273000000100    -0.004287634323794    -0.005395915615965
    -0.004954507833790    -0.002860486431478    -0.005786000000000
1 29
    -0.430902500000000    -0.224463500000000     0.179368500000000
    -0.224463500009862    -0.171714375697815     0.103558451761414
     0.000507497721657     0.000293003946205    -0.025465000000000
1 30
     0.004213000000000    -0.000809000000000     0.009332500000000
    -0.000809000000036     0.005147152735569     0.005388121387331
    -0.006699518130956    -0.003867968596263     0.016763500000000
1 31
     0.000069000000000    -0.005149000000000     0.003555500000000
    -0.005149000000226     0.006014553072245     0.002052768882149
     0.001064461305319     0.000614567021154    -0.000173500000000
1 32
     0.009704500000000    -0.015700000000000    -0.014842500000000
    -0.015700000000690     0.027833298452952    -0.008569321370635
     0.002581530432185     0.001490447289910    -0.004672500000000
1 33
    -0.027917000000000     0.020068000000000    -0.197222000000000
     0.020068000000882    -0.051089530404704    -0.113866174792618
    -0.031773901510036    -0.018344670589621    -0.806330500000000
1 34
    -0.019877000000000     0.008175000000000    -0.044777500000000
     0.008175000000359    -0.029316676901458    -0.025852301679206
    -0.049757497393882    -0.028727504513929     0.149507000000000
1 35
    -0.068129000000000     0.213353500000000     0.047605500000000
     0.200733611901737    -1.014454972191249    -0.202742031857948
     0.039974212456200    -0.236851382524949    -0.040512000000000
1 36
     0.003431000000000    -0.006248000000000     0.001796500000000
     0.002641174329711    -0.006847264894893    -0.002063738537264
     0.000983472706145    -0.004548811289741     0.017385500000000
1 37
    -0.598568500000000     0.506983000000000    -0.151777000000000
     0.519602888129912    -0.484015472191249     0.142598588289740
    -0.185132207964478     0.153044374745059    -0.040512000000000
1 38
    -0.005839500000000     0.007993500000000    -0.000889000000000
    -0.000895674329635     0.002423235105107     0.002587683906565
    -0.003447649780951     0.003126117992302     0.017385500000000
1 39
    -0.005736000000000    -0.009871500000000     0.028566500000000
     0.008433100533649     0.015815793652665     0.002307957701136
     0.024950387081622     0.006436321256281    -0.010665500000000
1 40
    -0.004394500000000    -0.005307000000000    -0.022116500000000
     0.009628626755953     0.007131074295970     0.002549867463932
    -0.009496952222554     0.000118939493404    -0.001777500000000
1 41
     0.009805000000000    -0.000539500000000     0.016282000000000
    -0.018844100534107     0.000274793652665     0.023585335847183
     0.018049211255790     0.018389508418325    -0.010665500000000
1 42
     0.006121000000000     0.003557500000000    -0.008850000000000
    -0.011378126756030    -0.003384425704031    -0.020428384575185
    -0.004645471488474    -0.008284071629780    -0.001777500000000
1 43
     0.010692500000000    -0.022583000000000    -0.006726500000000
    -0.022583000000992     0.036769102258791    -0.003883546585789
    -0.001004897367103    -0.000580177765392    -0.001663500000000
1 44
    -0.002896500000000    -0.000643500000000    -0.000736500000000
    -0.000643500000028    -0.002153450203537    -0.000425218473267
    -0.002433882846172    -0.001405202916383     0.007377500000000
2 1
     0.001546000000000     0.003522000000000     0.003009500000000
     0.003522000000155    -0.002520855296261     0.001737535635164
     0.002128922610637     0.001229134042308    -0.033165500000000
2 2
     1.559929000000000    -0.760013000000000     0.226082000000000
    -0.760013000033392     2.437516420294509     0.130528503561796
     0.226262031781178     0.130632444953385     1.039953000000000
2 3
     0.005014000000000    -0.005132000000000     0.002316500000000
     0.001296139705664    -0.006860698359743    -0.047392662872875
    -0.002001559323587    -0.039080202597103    -0.033973000000000
2 4
     0.005777500000000    -0.001898500000000    -0.000865000000000
     0.005574494652852    -0.007105503168936     0.039878737794342
     0.002263483352580     0.047480469667246    -0.033908000000000
2 5
    -0.005553000000000     0.007397000000000    -0.039885000000000
     0.000968860294435     0.003706301640257     0.025702479284348
    -0.034845227896671     0.017806700077182    -0.033973000000000
2 6
    -0.002293000000000     0.010234000000000     0.034103500000000
     0.002761005347514     0.000964996831064    -0.020688480871461
     0.042251034592645    -0.021780000749288    -0.033908000000000
2 7
    -0.000028500000000    -0.003227000000000     0.002824500000000
     0.001401345776478    -0.001196458042544     0.000099015571168
     0.001176355876125    -0.001564870742344    -0.000835500000000
2 8
     0.002559500000000    -0.078958500000000    -0.011317500000000
    -0.052952134281196    -0.073617193121781     0.001052220865621
    -0.006772962081901     0.008829975616371     0.012105000000000
2 9
    -0.001695000000000     0.002363500000000     0.001498000000000
    -0.002264845776516     0.000470041957456     0.002396580967459
    -0.000767039878476     0.001801189443765    -0.000835500000000
2 10
    -0.111692000000000     0.013011000000000    -0.004747500000000
    -0.012995365721702     0.040634306878219    -0.010327352940356
     0.004260502157792    -0.010280545029852     0.012105000000000
2 11
     0.000824000000000    -0.001205500000000     0.001000500000000
    -0.001205500000053     0.002215991499047     0.000577638944337
     0.002205941675872     0.001273601020353    -0.001638000000000
2 12
     0.000030500000000    -0.001781500000000    -0.001075500000000
    -0.001781500000078     0.002087599009168    -0.000620940214527
    -0.000906932149446    -0.000523617520608    -0.001625500000000
2 13
    -0.001181000000000    -0.000712000000000     0.001791000000000
    -0.000712000000031    -0.000358853216656     0.001034034332141
    -0.000211077549632    -0.000121865680097    -0.000789500000000
2 14
    -0.036681500000000     0.005854500000000    -0.017896500000000
     0.005854500000257    -0.043441694302090    -0.010332549092779
    -0.001473993809318    -0.000851010722575     0.022524000000000
2 15
    -0.001370000000000    -0.004805000000000    -0.003435000000000
     0.000730154408678     0.001644613199126     0.002451429243033
     0.003123448926528    -0.028904308113187    -0.018675500000000
2 16
     0.037229000000000    -0.030610000000000     0.031959500000000
    -0.038204201971396    -0.140591768634508     0.134186306192328
     0.027927407739955     0.143752514664574    -0.071920000000000
2 17
    -0.000873500000000     0.000443500000000     0.000405500000000
    -0.005091654408870     0.001148113199126    -0.004200511883581
    -0.023470140642119     0.017157140174331    -0.018675500000000
2 18
    -0.125934000000000     0.055998000000000     0.132188500000000
     0.063592201972511     0.022571231365492    -0.039415414203307
     0.138457033430129    -0.047690412768171    -0.071920000000000
2 19
    -0.002110500000000     0.000863000000000     0.002756000000000
    -0.002113058375772     0.002570554873050     0.001930659300213
     0.010692594443995    -0.007608609788440    -0.004846000000000
2 20
    -0.181311000000000     0.134323500000000    -0.124606500000000
     0.139536554135021    -0.026599509308407     0.068460751546337
    -0.119398871107545     0.072304406064094     0.000165500000000
2 21
     0.000859000000000    -0.003827500000000     0.003050000000000
    -0.000851441624358    -0.000398945126950     0.001421436362776
    -0.001242952142419     0.013064363314881    -0.004846000000000
2 22
     0.053307500000000     0.004079500000000    -0.003014500000000
    -0.001133554128940    -0.261218009308407    -0.142142770252205
     0.002918016904654    -0.139554658592093     0.000165500000000
2 23
     0.000050500000000    -0.000300000000000     0.000512000000000
    -0.000300000000013     0.000396910161521     0.000295603337832
    -0.004283465411803    -0.002473059908515    -0.004474000000000
2 24
    -0.030496500000000     0.011577500000000     0.023578500000000
     0.011577500000509    -0.043865045483379     0.013613053322387
     0.002185587029800     0.001261849259965    -0.013371500000000
2 25
    -0.004133000000000     0.000673500000000     0.019090500000000
     0.000673500000030    -0.004910690812616     0.011021905314207
     0.045226486165707     0.026111523961698     0.006930000000000
2 26
    -0.002526500000000     0.022054000000000    -0.118669000000000
     0.022054000000969    -0.027992265673975    -0.068513579095969
    -0.129898528604524    -0.074996950455511     0.064146500000000
2 27
    -0.001663000000000     0.002273000000000    -0.009346000000000
     0.002273000000100    -0.004287634323794    -0.005395915615965
    -0.004954507833790    -0.002860486431478    -0.005786000000000
2 28
    -0.037362000000000     0.148986500000000     0.010124000000000
     0.148986500006546    -0.209396791765020     0.005845094125404
     0.025429025982970     0.014681454996175    -0.033135000000000
2 29
     0.004213000000000    -0.000809000000000     0.009332500000000
    -0.000809000000036     0.005147152735569     0.005388121387331
    -0.006699518130956    -0.003867968596263     0.016763500000000
2 30
    -0.430902500000000    -0.224463500000000     0.179368500000000
    -0.224463500009862    -0.171714375697815     0.103558451761414
     0.000507497721657     0.000293003946205    -0.025465000000000
2 31
     0.009704500000000    -0.015700000000000    -0.014842500000000
    -0.015700000000690     0.027833298452952    -0.008569321370635
     0.002581530432185     0.001490447289910    -0.004672500000000
2 32
     0.000069000000000    -0.005149000000000     0.003555500000000
    -0.005149000000226     0.006014553072245     0.002052768882149
     0.001064461305319     0.000614567021154    -0.000173500000000
2 33
    -0.019877000000000     0.008175000000000    -0.044777500000000
     0.008175000000359    -0.029316676901458    -0.025852301679206
    -0.049757497393882    -0.028727504513929     0.149507000000000
2 34
    -0.027917000000000     0.020068000000000    -0.197222000000000
     0.020068000000882    -0.051089530404704    -0.113866174792618
    -0.031773901510036    -0.018344670589621    -0.806330500000000
2 35
     0.003431000000000    -0.006248000000000     0.001796500000000
     0.002641174329711    -0.006847264894893    -0.002063738537264
     0.000983472706145    -0.004548811289741     0.017385500000000
2 36
    -0.068129000000000     0.213353500000000     0.047605500000000
     0.200733611901737    -1.014454972191249    -0.202742031857948
     0.039974212456200    -0.236851382524949    -0.040512000000000
2 37
    -0.005839500000000     0.007993500000000    -0.000889000000000
    -0.000895674329635     0.002423235105107     0.002587683906565
    -0.003447649780951     0.003126117992302     0.017385500000000
2 38
    -0.598568500000000     0.506983000000000    -0.151777000000000
     0.519602888129912    -0.484015472191249     0.142598588289740
    -0.185132207964478     0.153044374745059    -0.040512000000000
2 39
    -0.004394500000000    -0.005307000000000    -0.022116500000000
     0.009628626755953     0.007131074295970     0.002549867463932
    -0.009496952222554     0.000118939493404    -0.001777500000000
2 40
    -0.005736000000000    -0.009871500000000     0.028566500000000
     0.008433100533649     0.015815793652665     0.002307957701136
     0.024950387081622     0.006436321256281    -0.010665500000000
2 41
     0.006121000000000     0.003557500000000    -0.008850000000000
    -0.011378126756030    -0.003384425704031    -0.020428384575185
    -0.004645471488474    -0.008284071629780    -0.001777500000000
2 42
     0.009805000000000    -0.000539500000000     0.016282000000000
    -0.018844100534107     0.000274793652665     0.023585335847183
     0.018049211255790     0.018389508418325    -0.010665500000000
2 43
    -0.002896500000000    -0.000643500000000    -0.000736500000000
    -0.000643500000028    -0.002153450203537    -0.000425218473267
    -0.002433882846172    -0.001405202916383     0.007377500000000
2 44
     0.010692500000000    -0.022583000000000    -0.006726500000000
    -0.022583000000992     0.036769102258791    -0.003883546585789
    -0.001004897367103    -0.000580177765392    -0.001663500000000
3 1
     0.005013999999737     0.005132000000074     0.002316500000000
    -0.001296139705491    -0.006860698359945     0.047392662872875
    -0.002001559324264     0.039080202598429    -0.033973000000000
3 2
     0.005777499999774     0.001898499999953    -0.000865000000000
    -0.005574494652534    -0.007105503169064    -0.039878737794342
     0.002263483353409    -0.047480469668854    -0.033908000000000
3 3
     1.559928999934137     0.760012999995366     0.226082000000000
     0.760012999961974     2.437516420360371    -0.130528503561797
     0.226262031776207    -0.130632444961994     1.039953000000000
3 4
     0.001546000000016    -0.003522000000145     0.003009500000000
    -0.003521999999991    -0.002520855296277    -0.001737535635164
     0.002128922610590    -0.001229134042389    -0.033165500000000
3 5
     0.002559499998413     0.078958500002553    -0.011317500000000
     0.052952134280852    -0.073617193125214    -0.001052220865621
    -0.006772962081510    -0.008829975616533     0.012105000000000
3 6
    -0.000028500000060     0.003227000000107     0.002824500000000
    -0.001401345776409    -0.001196458042557    -0.000099015571168
     0.001176355876056     0.001564870742373    -0.000835500000000
3 7
    -0.005552999999676    -0.007397000000138    -0.039885000000000
    -0.000968860294474     0.003706301640397    -0.025702479284348
    -0.034845227895184    -0.017806700077106    -0.033973000000000
3 8
    -0.002292999999730    -0.010234000000294     0.034103500000000
    -0.002761005347441     0.000964996831148     0.020688480871461
     0.042251034590839     0.021780000749202    -0.033908000000000
3 9
     0.000823999999950     0.001205500000024     0.001000500000000
     0.001205499999971     0.002215991499097    -0.000577638944337
     0.002205941675823    -0.001273601020437    -0.001638000000000
3 10
     0.000030499999965     0.001781500000058    -0.001075500000000
     0.001781499999980     0.002087599009203     0.000620940214527
    -0.000906932149426     0.000523617520642    -0.001625500000000
3 11
    -0.111691999996072    -0.013010999998304    -0.004747500000000
     0.012995365720500     0.040634306879311     0.010327352940356
     0.004260502157456     0.010280545030109     0.012105000000000
3 12
    -0.001694999999899    -0.002363500000046     0.001498000000000
     0.002264845776433     0.000470041957429    -0.002396580967459
    -0.000767039878417    -0.001801189443810    -0.000835500000000
3 13
     0.037228999998191     0.030610000000300     0.031959500000000
     0.038204201972812    -0.140591768639868    -0.134186306192328
     0.027927407741770    -0.143752514669842    -0.071920000000000
3 14
    -0.001370000000046     0.004805000000184    -0.003435000000000
    -0.000730154408686     0.001644613199194    -0.002451429243033
     0.003123448925875     0.028904308114080    -0.018675500000000
3 15
    -0.001180999999975     0.000712000000046     0.001791000000000
     0.000712000000015    -0.000358853216681    -0.001034034332141
    -0.000211077549627     0.000121865680105    -0.000789500000000
3 16
    -0.036681499998680    -0.005854499999495    -0.017896500000000
    -0.005854499999238    -0.043441694303410     0.010332549092779
    -0.001473993809286     0.000851010722631     0.022524000000000
3 17
    -0.002110499999914    -0.000862999999988     0.002756000000000
     0.002113058375653     0.002570554873095    -0.001930659300213
     0.010692594443498     0.007608609788487    -0.004846000000000
3 18
    -0.181310999991470    -0.134323500000977    -0.124606500000000
    -0.139536554129917    -0.026599509306629    -0.068460751546337
    -0.119398871102235    -0.072304406064205     0.000165500000000
3 19
    -0.125933999994785    -0.055997999999449     0.132188500000000
    -0.063592201970845     0.022571231367445     0.039415414203307
     0.138457033424659     0.047690412767108    -0.071920000000000
3 20
    -0.000873499999963    -0.000443499999998     0.000405500000000
     0.005091654408680     0.001148113199067     0.004200511883581
    -0.023470140641019    -0.017157140174449    -0.018675500000000
3 21
    -0.030496499998775    -0.011577499999801     0.023578500000000
    -0.011577499999293    -0.043865045484605    -0.013613053322387
     0.002185587029752    -0.001261849260048    -0.013371500000000
3 22
     0.000050499999993     0.000300000000009     0.000512000000000
     0.000299999999996     0.000396910161529    -0.000295603337832
    -0.004283465411709     0.002473059908678    -0.004474000000000
3 23
     0.000858999999899     0.003827500000110     0.003050000000000
     0.000851441624338    -0.000398945126979    -0.001421436362776
    -0.001242952142130    -0.013064363315288    -0.004846000000000
3 24
     0.053307499998321    -0.004079500001149    -0.003014500000000
     0.001133554133873    -0.261218009317037     0.142142770252205
     0.002918016901903     0.139554658596636     0.000165500000000
3 25
    -0.037361999995934    -0.148986500004199     0.010124000000000
    -0.148986499997653    -0.209396791769085    -0.005845094125404
     0.025429025982412    -0.014681454997143    -0.033135000000000
3 26
    -0.001662999999902    -0.002273000000043    -0.009346000000000
    -0.002272999999943    -0.004287634323892     0.005395915615965
    -0.004954507833681     0.002860486431666    -0.005786000000000
3 27
    -0.004132999999851    -0.000673499999944     0.019090500000000
    -0.000673499999914    -0.004910690812765    -0.011021905314207
     0.045226486164714    -0.026111523963419     0.006930000000000
3 28
    -0.002526499999497    -0.022054000000679    -0.118669000000000
    -0.022053999999710    -0.027992265674478     0.068513579095969
    -0.129898528601671     0.074996950460453     0.064146500000000
3 29
     0.009704499999382     0.015700000000333    -0.014842500000000
     0.015699999999643     0.027833298453571     0.008569321370635
     0.002581530432128    -0.001490447290008    -0.004672500000000
3 30
     0.000068999999900     0.005149000000168     0.003555500000000
     0.005148999999942     0.006014553072346    -0.002052768882149
     0.001064461305295    -0.000614567021195    -0.000173500000000
3 31
    -0.430902499990071     0.224463500015595     0.179368500000000
     0.224463500005733    -0.171714375707744    -0.103558451761415
     0.000507497721646    -0.000293003946225    -0.025465000000000
3 32
     0.004212999999846     0.000808999999947     0.009332500000000
     0.000808999999911     0.005147152735724    -0.005388121387331
    -0.006699518130809     0.003867968596518     0.016763500000000
3 33
    -0.068128999993696    -0.213353500005734     0.047605500000000
    -0.200733611875822    -1.014454972220859     0.202742031857948
     0.039974212450376     0.236851382531994    -0.040512000000000
3 34
     0.003430999999768     0.006248000000141     0.001796500000000
    -0.002641174329494    -0.006847264895068     0.002063738537264
     0.000983472706026     0.004548811289872     0.017385500000000
3 35
    -0.019876999999189    -0.008174999999891    -0.044777500000000
    -0.008174999999532    -0.029316676902268     0.025852301679206
    -0.049757497392789     0.028727504515822     0.149507000000000
3 36
    -0.027916999998698    -0.020068000000130    -0.197222000000000
    -0.020067999999248    -0.051089530406006     0.113866174792618
    -0.031773901509338     0.018344670590830    -0.806330500000000
3 37
    -0.004394499999956     0.005307000000259    -0.022116500000000
    -0.009628626755772     0.007131074296388    -0.002549867463932
    -0.009496952222239    -0.000118939493227    -0.001777500000000
3 38
    -0.005735999999999     0.009871500000434     0.028566500000000
    -0.008433100533672     0.015815793653347    -0.002307957701136
     0.024950387080922    -0.006436321256968    -0.010665500000000
3 39
    -0.598568499970630    -0.506983000005318    -0.151777000000000
    -0.519602888103581    -0.484015472197313    -0.142598588289740
    -0.185132207955466    -0.153044374746580    -0.040512000000000
3 40
    -0.005839499999656    -0.007993500000152    -0.000889000000000
     0.000895674329559     0.002423235105170    -0.002587683906565
    -0.003447649780778    -0.003126117992339     0.017385500000000
3 41
     0.010692499999218     0.022583000000541    -0.006726500000000
     0.022582999999549     0.036769102259573     0.003883546585789
    -0.001004897367081     0.000580177765430    -0.001663500000000
3 42
    -0.002896499999917     0.000643500000076    -0.000736500000000
     0.000643500000048    -0.002153450203620     0.000425218473268
    -0.002433882846119     0.001405202916475     0.007377500000000
3 43
     0.006120999999866    -0.003557500000234    -0.008850000000000
     0.011378126755720    -0.003384425704359     0.020428384575185
    -0.004645471488478     0.008284071630141    -0.001777500000000
3 44
     0.009804999999667     0.000539499999831     0.016282000000000
     0.018844100533481     0.000274793652316    -0.023585335847183
     0.018049211255546    -0.018389508419274    -0.010665500000000
4 1
     0.005777499999774     0.001898499999953    -0.000865000000000
    -0.005574494652534    -0.007105503169064    -0.039878737794342
     0.002263483353409    -0.047480469668854    -0.033908000000000
4 2
     0.005013999999737     0.005132000000074     0.002316500000000
    -0.001296139705491    -0.006860698359945     0.047392662872875
    -0.002001559324264     0.039080202598429    -0.033973000000000
4 3
     0.001546000000016    -0.003522000000145     0.003009500000000
    -0.003521999999991    -0.002520855296277    -0.001737535635164
     0.002128922610590    -0.001229134042389    -0.033165500000000
4 4
     1.559928999934137     0.760012999995366     0.226082000000000
     0.760012999961974     2.437516420360371    -0.130528503561797
     0.226262031776207    -0.130632444961994     1.039953000000000
4 5
    -0.000028500000060     0.003227000000107     0.002824500000000
    -0.001401345776409    -0.001196458042557    -0.000099015571168
     0.001176355876056     0.001564870742373    -0.000835500000000
4 6
     0.002559499998413     0.078958500002553    -0.011317500000000
     0.052952134280852    -0.073617193125214    -0.001052220865621
    -0.006772962081510    -0.008829975616533     0.012105000000000
4 7
    -0.002292999999730    -0.010234000000294     0.034103500000000
    -0.002761005347441     0.000964996831148     0.020688480871461
     0.042251034590839     0.021780000749202    -0.033908000000000
4 8
    -0.005552999999676    -0.007397000000138    -0.039885000000000
    -0.000968860294474     0.003706301640397    -0.025702479284348
    -0.034845227895184    -0.017806700077106    -0.033973000000000
4 9
     0.000030499999965     0.001781500000058    -0.001075500000000
     0.001781499999980     0.002087599009203     0.000620940214527
    -0.000906932149426     0.000523617520642    -0.001625500000000
4 10
     0.000823999999950     0.001205500000024     0.001000500000000
     0.001205499999971     0.002215991499097    -0.000577638944337
     0.002205941675823    -0.001273601020437    -0.001638000000000
4 11
    -0.001694999999899    -0.002363500000046     0.001498000000000
     0.002264845776433     0.000470041957429    -0.002396580967459
    -0.000767039878417    -0.001801189443810    -0.000835500000000
4 12
    -0.111691999996072    -0.013010999998304    -0.004747500000000
     0.012995365720500     0.040634306879311     0.010327352940356
     0.004260502157456     0.010280545030109     0.012105000000000
4 13
    -0.001370000000046     0.004805000000184    -0.003435000000000
    -0.000730154408686     0.001644613199194    -0.002451429243033
     0.003123448925875     0.028904308114080    -0.018675500000000
4 14
     0.037228999998191     0.030610000000300     0.031959500000000
     0.038204201972812    -0.140591768639868    -0.134186306192328