44   
18   

1    
  0.0100000000000000   0.0000000000000000   0.0000000000000000
  -0.0169041000    0.0067274500   -0.0028200100
  -0.0012984600   -0.0007760800   -0.0006526700
  -0.0013677500    0.0007784200   -0.0006196700
  -0.0013612300    0.0008112500   -0.0006536500
   0.0000259400   -0.0015971000   -0.0009721500
   0.0000580300   -0.0015702400   -0.0002374200
  -0.0000273700    0.0022739500   -0.0005103800
  -0.0000024100    0.0015125600   -0.0006515600
   0.0024102400   -0.0008832300   -0.0005717300
   0.0013142900   -0.0007759900   -0.0006334200
   0.0012952300    0.0007649600   -0.0006189500
   0.0012887800    0.0007605400   -0.0006434700
   0.0027416200    0.0013004500   -0.0007483800
   0.0023772900    0.0013605400   -0.0009412800
   0.0020396500   -0.0010890100   -0.0012696900
   0.0024219600   -0.0013421300   -0.0009119800
   0.0012561600    0.0022140400   -0.0022854800
  -0.0000020200    0.0027677100   -0.0009533200
   0.0018329100   -0.0040881500    0.0003423000
   0.0000306800   -0.0027325000   -0.0009374200
  -0.0029102900    0.0013257700   -0.0008948800
  -0.0023761200    0.0014042300   -0.0009515300
  -0.0021054700   -0.0014955700   -0.0011746300
  -0.0024069600   -0.0013737600   -0.0009395000
   0.0000286500   -0.0002272100   -0.0112165400
   0.0000401300   -0.0000070600   -0.0126063400
   0.0003659200   -0.0014916800   -0.0125048700
   0.0000142900   -0.0000216200   -0.0123289200
   0.0043965800    0.0023018300   -0.0261963100
  -0.0000432000    0.0000075100   -0.0244551000
   0.0000008500    0.0000516000   -0.0245046400
  -0.0000944200    0.0001569200   -0.0243096400
  -0.0154315900   -0.0092666700    0.0157977900
  -0.0154994000   -0.0091434400    0.0142573600
  -0.0150867700    0.0069756800    0.0133704400
  -0.0158023300    0.0091695100    0.0138317000
   0.0059249100   -0.0231776200    0.0153386700
   0.0000637200   -0.0182901300    0.0138630800
   0.0000523500    0.0182352600    0.0135457900
   0.0000394200    0.0181788100    0.0140336900
   0.0156069800   -0.0090650600    0.0136641200
   0.0156346000   -0.0091005700    0.0138960900
   0.0156579700    0.0093262900    0.0139153800
   0.0158007400    0.0091095300    0.0138591100

1    
 -0.0100000000000000   0.0000000000000000   0.0000000000000000
   0.0142944800   -0.0084728100    0.0017016300
  -0.0012675400   -0.0007056400   -0.0005924800
  -0.0012522000    0.0007404500   -0.0006369700
  -0.0012609500    0.0007086100   -0.0006073200
  -0.0000199200   -0.0013924200   -0.0002900800
  -0.0000530300   -0.0014223000   -0.0010351200
   0.0000238200    0.0006947800   -0.0007367300
  -0.0000029800    0.0014480200   -0.0005950700
   0.0001764000   -0.0006230100   -0.0006666800
   0.0012803900   -0.0007287200   -0.0006034600
   0.0012958400    0.0007293300   -0.0006404600
   0.0013052600    0.0007364300   -0.0006234600
   0.0020079900    0.0014175400   -0.0011063100
   0.0023536700    0.0013463000   -0.0009054600
   0.0027842300   -0.0017012100   -0.0006305000
   0.0023945600   -0.0014382300   -0.0009806800
  -0.0012625200    0.0033340000    0.0003582900
  -0.0000194900    0.0027765800   -0.0009452100
  -0.0017933100   -0.0014016800   -0.0021498300
  -0.0000115300   -0.0027152400   -0.0008823000
  -0.0018441400    0.0014073600   -0.0009551700
  -0.0023589400    0.0013276800   -0.0008905300
  -0.0027154000   -0.0012640200   -0.0007030600
  -0.0024059500   -0.0013797600   -0.0009292600
  -0.0000218800    0.0002138700   -0.0135899200
  -0.0000425300    0.0000064100   -0.0122245300
  -0.0003813200    0.0014880500   -0.0123023900
  -0.0000189700    0.0000238400   -0.0125158400
  -0.0042214700   -0.0021874400   -0.0226089400
   0.0000410600   -0.0000086700   -0.0242684500
   0.0000022300   -0.0000513800   -0.0244335300
   0.0000996700   -0.0001570800   -0.0246064900
  -0.0159899300   -0.0088653100    0.0118533500
  -0.0158969400   -0.0089799400    0.0133618100
  -0.0164493500    0.0112427500    0.0143225500
  -0.0157337100    0.0090445500    0.0138676300
  -0.0060464600   -0.0130379600    0.0123031300
  -0.0000530700   -0.0181302600    0.0138453000
  -0.0000623700    0.0180378300    0.0141171200
  -0.0000484700    0.0180726700    0.0135913600
   0.0158030800   -0.0090758500    0.0139897600
   0.0157570200   -0.0090294200    0.0137190900
   0.0158718200    0.0088746300    0.0137808500
   0.0157428100    0.0090966600    0.0138443800

1    
  0.0000000000000000   0.0000000000000000   0.0100000000000000
  -0.0035971100   -0.0020767900   -0.0112652200
  -0.0013085700   -0.0007555000   -0.0002955300
  -0.0013135800    0.0002707600   -0.0002766100
  -0.0012649700    0.0011311600   -0.0002801500
  -0.0004223100   -0.0012729800   -0.0002766100
   0.0003471200   -0.0016610700   -0.0002801500
   0.0000667000    0.0014062300   -0.0007471200
  -0.0000133500    0.0015106000   -0.0006194100
   0.0012511800   -0.0006453500   -0.0007471200
   0.0013015400   -0.0007668600   -0.0006194100
   0.0012935500    0.0007468300   -0.0006020800
   0.0012566000    0.0007255000   -0.0006024200
   0.0024172200    0.0013955800   -0.0011780200
   0.0023913500    0.0013806500   -0.0009341900
   0.0020880700   -0.0028021100   -0.0002131100
   0.0023380400   -0.0010851500   -0.0007353000
  -0.0013826600    0.0032093800   -0.0002131100
   0.0002292500    0.0025673800   -0.0007353000
   0.0012009400   -0.0035022800   -0.0009485100
  -0.0001013200   -0.0026873600   -0.0008860700
  -0.0024325900    0.0027911800   -0.0009485100
  -0.0023779800    0.0012559300   -0.0008860700
  -0.0023860500   -0.0013775900   -0.0007841000
  -0.0023256600   -0.0013427200   -0.0008651400
   0.0013016700    0.0007515200   -0.0130855800
  -0.0004465800   -0.0002578300   -0.0124846600
  -0.0002592900   -0.0001497000   -0.0120799100
   0.0000466700    0.0000269400   -0.0123577300
  -0.0000130400   -0.0000075300   -0.0242032100
   0.0000661100    0.0000381700   -0.0245800500
  -0.0000099400   -0.0000057400   -0.0244038000
  -0.0000252600   -0.0000145800   -0.0243515600
  -0.0154086500   -0.0088961900    0.0220858000
  -0.0152363000   -0.0087966800    0.0123488600
  -0.0161100700    0.0114501800    0.0142448300
  -0.0157301400    0.0091254300    0.0136610600
   0.0018611100   -0.0196768200    0.0142448300
   0.0000377800   -0.0181854100    0.0136610600
  -0.0002524200    0.0181440900    0.0139613600
   0.0000917900    0.0181622600    0.0138528500
   0.0155870400   -0.0092906500    0.0139613600
   0.0157748700   -0.0090016400    0.0138528500
   0.0157226000    0.0090774400    0.0138487400
   0.0157466500    0.0090913300    0.0137621800

1    
  0.0000000000000000   0.0000000000000000  -0.0100000000000000
   0.0009281300    0.0005358600    0.0095338400
  -0.0012659900   -0.0007309200   -0.0009588400
  -0.0012683100    0.0012203700   -0.0009547700
  -0.0013050000    0.0003495500   -0.0009596100
   0.0004227100   -0.0017085800   -0.0009547700
  -0.0003497800   -0.0013049400   -0.0009596100
  -0.0000687600    0.0015828300   -0.0005050200
   0.0000101800    0.0014793000   -0.0006361200
   0.0013363900   -0.0008509600   -0.0005050200
   0.0012862000   -0.0007308400   -0.0006361200
   0.0012754100    0.0007363600   -0.0006345900
   0.0013007200    0.0007509700   -0.0006351800
   0.0023877400    0.0013785600   -0.0007275400
   0.0023871300    0.0013782100   -0.0009499800
   0.0026466200    0.0000729400   -0.0016515100
   0.0024005100   -0.0016632400   -0.0011088100
   0.0013864800    0.0022555700   -0.0016515100
  -0.0002401500    0.0029105200   -0.0011088100
  -0.0011870400   -0.0020561900   -0.0009452000
   0.0001125300   -0.0028395300   -0.0009829900
  -0.0023742300    0.0000000900   -0.0009452000
  -0.0024028400    0.0015172200   -0.0009829900
  -0.0023423400   -0.0013523500   -0.0010515300
  -0.0024113300   -0.0013921800   -0.0009546200
  -0.0012963000   -0.0007484200   -0.0118026500
   0.0004579500    0.0002644000   -0.0123460600
   0.0002492900    0.0001439300   -0.0127426100
  -0.0000524200   -0.0000302700   -0.0124734500
  -0.0000028900   -0.0000016700   -0.0247125100
  -0.0000678800   -0.0000391900   -0.0242447800
   0.0000113500    0.0000065500   -0.0244072700
   0.0000263700    0.0000152300   -0.0244450100
  -0.0160441300   -0.0092630800    0.0059591900
  -0.0162314500   -0.0093712300    0.0153390000
  -0.0153105900    0.0067131500    0.0134345900
  -0.0157104700    0.0090344500    0.0140087700
  -0.0018415300   -0.0166159300    0.0134345900
  -0.0000311700   -0.0181228900    0.0140087700
   0.0002465900    0.0182728200    0.0137480500
  -0.0000981500    0.0181646400    0.0138173000
   0.0159480200   -0.0089228600    0.0137480500
   0.0156819600   -0.0091673200    0.0138173000
   0.0157025000    0.0090658400    0.0138154700
   0.0156979700    0.0090632300    0.0139097300

13   
  0.0100000000000000   0.0000000000000000   0.0000000000000000
  -0.0009157100   -0.0007934000   -0.0006423200
  -0.0012813700   -0.0007345600   -0.0006128100
  -0.0016667600    0.0003628500   -0.0008836600
  -0.0012914100    0.0007619200   -0.0006394000
   0.0006679500   -0.0023844300    0.0005046800
  -0.0000220400   -0.0015130000   -0.0008784200
   0.0018223200    0.0001598200    0.0005587800
  -0.0000243500    0.0014590000   -0.0007349300
   0.0007611000   -0.0007547500   -0.0006231300
   0.0012951800   -0.0007617900   -0.0006259100
   0.0015847600    0.0006184500   -0.0005809900
   0.0012905000    0.0007445600   -0.0006537200
  -0.0103604500    0.0024899400    0.0000002100
   0.0023657800    0.0013374900   -0.0009410000
   0.0026188400   -0.0013974700   -0.0009017600
   0.0025903000   -0.0012676100   -0.0009517600
  -0.0001122600    0.0028494800   -0.0007752200
  -0.0000143500    0.0028703700   -0.0007664000
   0.0000427000   -0.0023458300   -0.0011962100
   0.0000196600   -0.0027190100   -0.0009421200
  -0.0015360900    0.0014472300   -0.0009276100
  -0.0023511700    0.0013618400   -0.0009398000
  -0.0026887300   -0.0012893300   -0.0005272400
  -0.0026586600   -0.0012724500   -0.0011661200
   0.0019586700    0.0023344800   -0.0137490700
   0.0000235100    0.0001253200   -0.0122162700
  -0.0000034100    0.0011819400   -0.0125411300
  -0.0002523200   -0.0000021700   -0.0114821400
  -0.0003123200   -0.0005250800   -0.0238692200
   0.0000157500   -0.0000323400   -0.0243330000
   0.0027895200    0.0011867000   -0.0228712700
  -0.0000241800   -0.0002903900   -0.0245693100
  -0.0155857800   -0.0092084400    0.0137739200
  -0.0158373400   -0.0090500400    0.0137956700
  -0.0154706000    0.0094892900    0.0136087800
  -0.0156430300    0.0091458400    0.0137469000
   0.0032136100   -0.0207238300    0.0113243900
   0.0000146700   -0.0181737700    0.0135693600
   0.0016861300    0.0167322000    0.0128106300
  -0.0000044300    0.0181333800    0.0138512600
   0.0160755900   -0.0086108900    0.0134414100
   0.0158161800   -0.0090671600    0.0138595300
   0.0157058800    0.0089370000    0.0138403800
   0.0156981700    0.0091886700    0.0138560300

13   
 -0.0100000000000000   0.0000000000000000   0.0000000000000000
  -0.0016726600   -0.0006937500   -0.0006264200
  -0.0012854100   -0.0007401700   -0.0006234800
  -0.0009266000    0.0011308400   -0.0003601900
  -0.0013156500    0.0007447900   -0.0006052400
  -0.0006610600   -0.0005826500   -0.0017405400
   0.0000283500   -0.0014599600   -0.0003744800
  -0.0018497900    0.0028435200   -0.0018410600
   0.0000166500    0.0015004500   -0.0005009800
   0.0018533200   -0.0007452900   -0.0006334100
   0.0012963400   -0.0007356100   -0.0006049200
   0.0009793000    0.0008557700   -0.0006618600
   0.0012865000    0.0007380700   -0.0005971900
   0.0152567100    0.0002620700   -0.0019093000
   0.0023829700    0.0013810100   -0.0009301300
   0.0021692400   -0.0013684100   -0.0009929600
   0.0021712100   -0.0014791600   -0.0008902200
   0.0000900900    0.0026648000   -0.0011260100
  -0.0000050000    0.0026108800   -0.0010792000
  -0.0000237900   -0.0032128900   -0.0006713900
  -0.0000004800   -0.0027552300   -0.0009027300
  -0.0032812100    0.0013428000   -0.0009637000
  -0.0024030800    0.0013820100   -0.0009251800
  -0.0020961600   -0.0014487800   -0.0013413000
  -0.0020971900   -0.0014502800   -0.0006560400
  -0.0019844600   -0.0023763500   -0.0110848600
  -0.0000234500   -0.0001217600   -0.0125691100
  -0.0000034600   -0.0011739700   -0.0122909200
   0.0002494400    0.0000048000   -0.0133519400
   0.0002797200    0.0005149600   -0.0251857900
  -0.0000183200    0.0000357900   -0.0244909000
  -0.0027265700   -0.0011433000   -0.0259299000
   0.0000249400    0.0002860600   -0.0243278400
  -0.0160220600   -0.0090235400    0.0139569500
  -0.0156077300   -0.0090933800    0.0138629000
  -0.0160108200    0.0086730600    0.0140817300
  -0.0158370800    0.0090332800    0.0139395100
  -0.0031256700   -0.0156855600    0.0162642400
  -0.0000033400   -0.0181768300    0.0141232500
  -0.0018069000    0.0197899600    0.0149912500
  -0.0000079500    0.0181689600    0.0138113800
   0.0155170900   -0.0096290300    0.0142850100
   0.0156204900   -0.0090847500    0.0137980000
   0.0157869600    0.0092361600    0.0138393500
   0.0157865500    0.0089806200    0.0138356200

13   
  0.0000000000000000   0.0000000000000000   0.0100000000000000
  -0.0011165200   -0.0006446200   -0.0008431200
  -0.0012955400   -0.0007479800   -0.0006104200
  -0.0016203000    0.0020990100    0.0000901700
  -0.0012415600    0.0007620000   -0.0004465500
   0.0010076500   -0.0024527300    0.0000901700
   0.0000391300   -0.0014562200   -0.0004465500
   0.0012138900    0.0007689200   -0.0006130400
   0.0000032600    0.0015173000   -0.0005679400
   0.0012728500    0.0006668000   -0.0006130400
   0.0013156500   -0.0007558300   -0.0005679400
   0.0015271300    0.0008816900   -0.0004968000
   0.0012725400    0.0007347000   -0.0005898900
   0.0032970800    0.0019035700   -0.0169234300
   0.0023713400    0.0013690900   -0.0008804800
   0.0023255400   -0.0015653600   -0.0007061300
   0.0024462900   -0.0015678700   -0.0007062800
  -0.0001928700    0.0027966600   -0.0007061300
  -0.0001346700    0.0029024800   -0.0007062800
  -0.0002754100   -0.0026310200   -0.0015081900
  -0.0000065700   -0.0027339300   -0.0008548800
  -0.0024162400    0.0010770000   -0.0015081900
  -0.0023709300    0.0013612700   -0.0008548800
  -0.0021034200   -0.0012144100    0.0010820300
  -0.0028117200   -0.0016233500    0.0011173000
  -0.0013424100   -0.0007750400   -0.0137298700
  -0.0000369600   -0.0000213400   -0.0124464300
  -0.0010677500   -0.0006164700   -0.0118775100
  -0.0000442000   -0.0000255200   -0.0111077900
  -0.0005168200   -0.0002983900   -0.0237434500
   0.0000182600    0.0000105400   -0.0245586300
   0.0019159800    0.0011061900   -0.0226220100
   0.0001246000    0.0000719400   -0.0244131700
  -0.0157254900   -0.0090791200    0.0143221800
  -0.0156389300   -0.0090291400    0.0135902700
  -0.0146655500    0.0056673200    0.0164223200
  -0.0158135500    0.0090394200    0.0135753000
  -0.0024247300   -0.0155344000    0.0164223200
  -0.0000784100   -0.0182146400    0.0135753000
  -0.0007594600    0.0191761200    0.0152341200
  -0.0000353500    0.0181327700    0.0137126300
   0.0162272800   -0.0102457700    0.0152341200
   0.0156857700   -0.0090970000    0.0137126300
   0.0157687500    0.0091040900    0.0140279900
   0.0159023800    0.0091812400    0.0134401500

13   
  0.0000000000000000   0.0000000000000000  -0.0100000000000000
  -0.0014543100   -0.0008396500   -0.0004104800
  -0.0012715300   -0.0007341200   -0.0006368000
  -0.0009686400   -0.0005917700   -0.0013362100
  -0.0013428900    0.0007323900   -0.0008027000
  -0.0009968100   -0.0005429900   -0.0013362100
  -0.0000371700   -0.0015291800   -0.0008027000
  -0.0012173700    0.0022199500   -0.0006279800
  -0.0000048200    0.0014655400   -0.0006749700
   0.0013138500   -0.0021642500   -0.0006279800
   0.0012667800   -0.0007369500   -0.0006749700
   0.0010427300    0.0006020200   -0.0007524600
   0.0012954900    0.0007479500   -0.0006632100
   0.0013560700    0.0007829300    0.0151013600
   0.0023864900    0.0013778400   -0.0009979100
   0.0024388700   -0.0011996900   -0.0011701200
   0.0023228000   -0.0011964400   -0.0011684100
   0.0001804700    0.0027119600   -0.0011701200
   0.0001252500    0.0026098200   -0.0011684100
   0.0002851800   -0.0028786900   -0.0003529700
   0.0000169500   -0.0027701200   -0.0010045200
  -0.0023504300    0.0016863200   -0.0003529700
  -0.0023905200    0.0013997400   -0.0010045200
  -0.0026664600   -0.0015394800   -0.0029680100
  -0.0019648000   -0.0011343800   -0.0029315200
   0.0013507100    0.0007798300   -0.0111209200
   0.0000371600    0.0000214500   -0.0124079800
   0.0010648200    0.0006147800   -0.0129509400
   0.0000475900    0.0000274800   -0.0137271100
   0.0005082000    0.0002934100   -0.0251072600
  -0.0000192200   -0.0000111000   -0.0242790400
  -0.0018407300   -0.0010627500   -0.0261676300
  -0.0001235600   -0.0000713400   -0.0244375200
  -0.0157395600   -0.0090872400    0.0133558800
  -0.0158251100   -0.0091366300    0.0140788700
  -0.0167940000    0.0125990000    0.0111915900
  -0.0156549800    0.0091330300    0.0141000500
   0.0025140500   -0.0208435300    0.0111915900
   0.0000819500   -0.0181241300    0.0141000500
   0.0007242300    0.0171648200    0.0124566700
   0.0000329800    0.0181990900    0.0139553300
   0.0152272800   -0.0079552100    0.0124566700
   0.0157773600   -0.0090709800    0.0139553300
   0.0156989800    0.0090638100    0.0136517500
   0.0155666700    0.0089874200    0.0142394400

25   
  0.0100000000000000   0.0000000000000000   0.0000000000000000
  -0.0012471200   -0.0009489900    0.0006713600
  -0.0012440300   -0.0007395600   -0.0010798700
  -0.0009427800    0.0022313900   -0.0008793800
  -0.0012895300    0.0007725900   -0.0005715600
   0.0029574200   -0.0014932600   -0.0006271700
   0.0000571100   -0.0014816900   -0.0006257500
   0.0004085800    0.0014677700   -0.0006114900
   0.0000415500    0.0014816400   -0.0006277400
   0.0013244400   -0.0005216900   -0.0019189400
   0.0013473100   -0.0007511300   -0.0001704200
   0.0016731500   -0.0007618300   -0.0003773300
   0.0012981700    0.0007116500   -0.0006774500
   0.0043466700    0.0037265000   -0.0022808800
   0.0024101800    0.0014816800   -0.0009755800
   0.0021479000   -0.0013828800   -0.0009752300
   0.0023976400   -0.0025514100   -0.0020158700
  -0.0002575000    0.0027609600   -0.0009306700
  -0.0020543900    0.0027553600   -0.0009452000
  -0.0020939300   -0.0027309500   -0.0009230600
  -0.0001681500   -0.0027520500   -0.0009268600
  -0.0004108300   -0.0009640500    0.0004127400
  -0.0023601400    0.0012587800   -0.0009012800
  -0.0026425800   -0.0013710800   -0.0008689700
  -0.0023888600   -0.0001741100    0.0001321700
  -0.0879727100    0.0009311100   -0.0130193200
   0.0002993900   -0.0000416400   -0.0124506600
  -0.0021563200    0.0000509300   -0.0124155600
  -0.0021595700    0.0000430200   -0.0124293900
   0.0055895000    0.0000002900   -0.0243707900
   0.0002474200   -0.0000001000   -0.0244122500
   0.0009210100    0.0000069900   -0.0244107700
  -0.0005020800   -0.0000058600   -0.0244420100
   0.0228315900    0.0116765200    0.0015933500
  -0.0157027300   -0.0087622200    0.0138697100
  -0.0155295600    0.0097339100    0.0126501300
  -0.0157226300    0.0089417300    0.0147999400
   0.0013656200   -0.0181779900    0.0138311000
  -0.0002000800   -0.0181803700    0.0138402500
   0.0025613700    0.0181313400    0.0138354500
  -0.0004896800    0.0181624300    0.0138346300
   0.0557959500   -0.0307661800    0.0266783700
   0.0157822600   -0.0093733700    0.0138103700
   0.0159657800    0.0084087500    0.0150194200
   0.0157652000    0.0091970600    0.0128824600

25   
  0.0000000000000000   0.0000000000000000   0.0100000000000000
  -0.0001026800   -0.0000592800   -0.0012441900
  -0.0014577000   -0.0008416000   -0.0007109900
  -0.0013930500    0.0008042800   -0.0003028200
  -0.0011656900    0.0006730100   -0.0005744500
   0.0000000000   -0.0016085600   -0.0003028200
   0.0000000000   -0.0013460200   -0.0005744500
   0.0000000000    0.0001185700   -0.0012441900
   0.0000000000    0.0016832100   -0.0007109900
   0.0001026800   -0.0000592800   -0.0012441900
   0.0014577000   -0.0008416000   -0.0007109900
   0.0013930500    0.0008042800   -0.0003028200
   0.0011656900    0.0006730100   -0.0005744500
   0.0010490300    0.0006056600   -0.0022231200
   0.0025276700    0.0014593500   -0.0009633500
   0.0033094300   -0.0019107000    0.0003494700
   0.0022538700   -0.0013012700   -0.0004189500
   0.0000000000    0.0038214000    0.0003494700
   0.0000000000    0.0026025400   -0.0004189500
   0.0000000000   -0.0012113200   -0.0022231200
   0.0000000000   -0.0029187000   -0.0009633500
  -0.0010490300    0.0006056600   -0.0022231200
  -0.0025276700    0.0014593500   -0.0009633500
  -0.0033094300   -0.0019107000    0.0003494700
  -0.0022538700   -0.0013012700   -0.0004189500
   0.0000000000    0.0000000000   -0.0962346100
   0.0000000000    0.0000000000   -0.0133722800
   0.0000000000    0.0000000000   -0.0122701400
   0.0000000000    0.0000000000   -0.0122614100
   0.0000000000    0.0000000000    0.0330914900
   0.0000000000    0.0000000000   -0.0231574400
   0.0000000000    0.0000000000   -0.0251116500
   0.0000000000    0.0000000000   -0.0249816600
  -0.0291896800   -0.0168526700    0.0228398700
  -0.0160327200   -0.0092565000    0.0134352600
  -0.0154040400    0.0088935300    0.0138093500
  -0.0163294600    0.0094278200    0.0141031500
   0.0000000000   -0.0177870600    0.0138093500
   0.0000000000   -0.0188556300    0.0141031500
   0.0000000000    0.0337053300    0.0228398700
   0.0000000000    0.0185129900    0.0134352600
   0.0291896800   -0.0168526700    0.0228398700
   0.0160327200   -0.0092565000    0.0134352600
   0.0154040400    0.0088935300    0.0138093500
   0.0163294600    0.0094278200    0.0141031500

25   
  0.0000000000000000   0.0000000000000000  -0.0100000000000000
  -0.0024794200   -0.0014315000    0.0000140400
  -0.0011164000   -0.0006445600   -0.0005485800
  -0.0011911200    0.0006876900   -0.0009420800
  -0.0014063200    0.0008119400   -0.0006767700
   0.0000000000   -0.0013753800   -0.0009420800
   0.0000000000   -0.0016238700   -0.0006767700
   0.0000000000    0.0028629900    0.0000140400
   0.0000000000    0.0012891100   -0.0005485800
   0.0024794200   -0.0014315000    0.0000140400
   0.0011164000   -0.0006445600   -0.0005485800
   0.0011911200    0.0006876900   -0.0009420800
   0.0014063200    0.0008119400   -0.0006767700
   0.0037000000    0.0021361900    0.0003826500
   0.0022404900    0.0012935500   -0.0009075000
   0.0014470600   -0.0008354600   -0.0022291600
   0.0025137200   -0.0014513000   -0.0014516100
   0.0000000000    0.0016709300   -0.0022291600
   0.0000000000    0.0029026000   -0.0014516100
   0.0000000000   -0.0042723900    0.0003826500
   0.0000000000   -0.0025870900   -0.0009075000
  -0.0037000000    0.0021361900    0.0003826500
  -0.0022404900    0.0012935500   -0.0009075000
  -0.0014470600   -0.0008354600   -0.0022291600
  -0.0025137200   -0.0014513000   -0.0014516100
   0.0000000000    0.0000000000    0.0743953700
   0.0000000000    0.0000000000   -0.0114349400
   0.0000000000    0.0000000000   -0.0125675400
   0.0000000000    0.0000000000   -0.0125451400
   0.0000000000    0.0000000000   -0.0847392800
   0.0000000000    0.0000000000   -0.0257051100
   0.0000000000    0.0000000000   -0.0237501800
   0.0000000000    0.0000000000   -0.0238658900
  -0.0024181600   -0.0013961300    0.0047507400
  -0.0154365500   -0.0089123000    0.0142399300
  -0.0160672100    0.0092764100    0.0138629300
  -0.0151219700    0.0087306700    0.0135763200
   0.0000000000   -0.0185528100    0.0138629300
   0.0000000000   -0.0174613500    0.0135763200
   0.0000000000    0.0027922500    0.0047507400
   0.0000000000    0.0178245900    0.0142399300
   0.0024181600   -0.0013961300    0.0047507400
   0.0154365500   -0.0089123000    0.0142399300
   0.0160672100    0.0092764100    0.0138629300
   0.0151219700    0.0087306700    0.0135763200

29   
  0.0100000000000000   0.0000000000000000   0.0000000000000000
   0.0029233300    0.0014401100   -0.0006244200
  -0.0013349900   -0.0007352500   -0.0005637800
  -0.0013976300    0.0005972300   -0.0006436900
  -0.0012959700    0.0006993800   -0.0006262100
  -0.0003647900   -0.0014853500   -0.0006242300
  -0.0000852500   -0.0014800500   -0.0006190600
   0.0004146200    0.0014806300   -0.0006315000
  -0.0000622300    0.0014908100   -0.0006317200
   0.0057049800   -0.0030628700   -0.0006127000
   0.0012618000   -0.0007646600   -0.0006955700
   0.0011835400    0.0008940200   -0.0005915500
   0.0012824800    0.0007897200   -0.0006049100
   0.0021328200    0.0008686700   -0.0014640300
   0.0024237400    0.0013428600   -0.0009267900
   0.0050944200   -0.0025024600    0.0009159100
   0.0023563500   -0.0010854600   -0.0008024500
   0.0007330600    0.0027241800   -0.0009238700
   0.0004653800    0.0027401300   -0.0009309500
   0.0006157800   -0.0027797200   -0.0009488100
   0.0000854100   -0.0027748100   -0.0009339200
  -0.0027249800    0.0019221200   -0.0004357000
  -0.0023927200    0.0014238600   -0.0009639700
   0.0004261900   -0.0001610400   -0.0028290800
  -0.0024011000   -0.0016485700   -0.0010380900
   0.0055877100    0.0000050100   -0.0125157300
   0.0002594400    0.0000171500   -0.0124270400
   0.0009010900   -0.0000094800   -0.0123978200
  -0.0005216300   -0.0000070700   -0.0124106000
  -0.0242182300    0.0000652700   -0.0243553400
  -0.0001096700    0.0000009800   -0.0244890100
   0.0002028200   -0.0000022900   -0.0244173000
   0.0002038800   -0.0000024300   -0.0243657500
  -0.0162148700   -0.0086255000    0.0112183200
  -0.0156840600   -0.0089016600    0.0144457800
  -0.0150408500    0.0106736300    0.0142013100
  -0.0157782300    0.0092607700    0.0139584200
   0.0034442200   -0.0180952400    0.0138138700
   0.0002603000   -0.0181553300    0.0138438700
  -0.0012910300    0.0182132100    0.0138541900
  -0.0002697400    0.0182259600    0.0138604200
   0.0153355800   -0.0096085000    0.0165151700
   0.0158845100   -0.0093285600    0.0132694300
   0.0163328700    0.0074422800    0.0134320700
   0.0156716400    0.0088983200    0.0137168200

29   
  0.0000000000000000   0.0000000000000000   0.0100000000000000
  -0.0030956100   -0.0017872500   -0.0003134300
  -0.0013464700   -0.0007773900   -0.0008198000
  -0.0011475100    0.0006625200   -0.0006024900
  -0.0013095500    0.0007560700   -0.0006211200
   0.0000000000   -0.0013250300   -0.0006024900
   0.0000000000   -0.0015121400   -0.0006211200
   0.0000000000    0.0035745000   -0.0003134300
   0.0000000000    0.0015547800   -0.0008198000
   0.0030956100   -0.0017872500   -0.0003134300
   0.0013464700   -0.0007773900   -0.0008198000
   0.0011475100    0.0006625200   -0.0006024900
   0.0013095500    0.0007560700   -0.0006211200
   0.0030636800    0.0017688200   -0.0002161500
   0.0025502600    0.0014723900   -0.0011151400
   0.0038578900   -0.0022273600    0.0008874200
   0.0023001400   -0.0013279900   -0.0010001800
   0.0000000000    0.0044547100    0.0008874200
   0.0000000000    0.0026559800   -0.0010001800
   0.0000000000   -0.0035376300   -0.0002161500
   0.0000000000   -0.0029447900   -0.0011151400
  -0.0030636800    0.0017688200   -0.0002161500
  -0.0025502600    0.0014723900   -0.0011151400
  -0.0038578900   -0.0022273600    0.0008874200
  -0.0023001400   -0.0013279900   -0.0010001800
   0.0000000000    0.0000000000    0.0479879700
   0.0000000000    0.0000000000   -0.0112100100
   0.0000000000    0.0000000000   -0.0131645800
   0.0000000000    0.0000000000   -0.0129682600
   0.0000000000    0.0000000000   -0.1020215600
   0.0000000000    0.0000000000   -0.0254695000
   0.0000000000    0.0000000000   -0.0247089500
   0.0000000000    0.0000000000   -0.0247245500
  -0.0172252800   -0.0099450200    0.0155607800
  -0.0155708400   -0.0089898300    0.0157605200
  -0.0153292600    0.0088503500    0.0137922800
  -0.0158721900    0.0091638100    0.0141138200
   0.0000000000   -0.0177007000    0.0137922800
   0.0000000000   -0.0183276300    0.0141138200
   0.0000000000    0.0198900500    0.0155607800
   0.0000000000    0.0179796600    0.0157605200
   0.0172252800   -0.0099450200    0.0155607800
   0.0155708400   -0.0089898300    0.0157605200
   0.0153292600    0.0088503500    0.0137922800
   0.0158721900    0.0091638100    0.0141138200

29   
  0.0000000000000000   0.0000000000000000  -0.0100000000000000
   0.0005665800    0.0003271200   -0.0009125500
  -0.0012470600   -0.0007199900   -0.0004507300
  -0.0014297800    0.0008254900   -0.0006554900
  -0.0012389000    0.0007152800   -0.0006088000
   0.0000000000   -0.0016509700   -0.0006554900
   0.0000000000   -0.0014305600   -0.0006088000
   0.0000000000   -0.0006542300   -0.0009125500
   0.0000000000    0.0014399900   -0.0004507300
  -0.0005665800    0.0003271200   -0.0009125500
   0.0012470600   -0.0007199900   -0.0004507300
   0.0014297800    0.0008254900   -0.0006554900
   0.0012389000    0.0007152800   -0.0006088000
   0.0016468400    0.0009508000   -0.0016199900
   0.0023309300    0.0013457600   -0.0007896800
   0.0008000700   -0.0004619200   -0.0027359500
   0.0024829000   -0.0014335100   -0.0009194800
   0.0000000000    0.0009238400   -0.0027359500
   0.0000000000    0.0028670100   -0.0009194800
   0.0000000000   -0.0019016000   -0.0016199900
   0.0000000000   -0.0026915300   -0.0007896800
  -0.0016468400    0.0009508000   -0.0016199900
  -0.0023309300    0.0013457600   -0.0007896800
  -0.0008000700   -0.0004619200   -0.0027359500
  -0.0024829000   -0.0014335100   -0.0009194800
   0.0000000000    0.0000000000   -0.0699541300
   0.0000000000    0.0000000000   -0.0136954500
   0.0000000000    0.0000000000   -0.0117605700
   0.0000000000    0.0000000000   -0.0118846700
   0.0000000000    0.0000000000    0.0507831900
   0.0000000000    0.0000000000   -0.0237038900
   0.0000000000    0.0000000000   -0.0241996900
   0.0000000000    0.0000000000   -0.0241909700