# epsilon and Z* of atoms 1 2 3 4 5 6 7 8 9 10 11 12 13 14 15 16 17 18
   6.03916620    0.00000000    0.00000000    0.00000000    6.03916620    0.00000000    0.00000000    0.00000000    4.84339587 
   3.03464524    0.00000000   -0.00000000   -0.00000000    3.03464524   -0.00000000    0.00000000    0.00000000    1.69022756 
   3.02169441   -0.00000000   -0.00000000   -0.00000000    3.02169441    0.00000000    0.00000000    0.00000000    1.68142713 
   3.02174020   -0.00000000   -0.00000000   -0.00000000    3.02174020    0.00000000    0.00000000    0.00000000    1.68162860 
   3.01719940    0.00000000   -0.00000000   -0.00000000    3.01719940   -0.00000000    0.00000000    0.00000000    1.68284994 
   3.03013981   -0.00000000   -0.00000000   -0.00000000    3.03013981    0.00000000    0.00000000    0.00000000    1.69075447 
   3.02175605   -0.00000000   -0.00000000    0.00000000    3.02175605   -0.00000000    0.00000000    0.00000000    1.68115426 
  -1.50201632    0.00000000   -0.00000000   -0.00000000   -1.50201632   -0.00000000    0.00000000    0.00000000   -0.84648378 
  -1.50333334    0.00000000   -0.00000000   -0.00000000   -1.50333334   -0.00000000    0.00000000    0.00000000   -0.83591819 
  -1.53170676    0.00000000    0.00000000   -0.00000000   -1.53170676    0.00000000    0.00000000    0.00000000   -0.84455596 
  -1.50090343    0.00000000   -0.00000000   -0.00000000   -1.50090343   -0.00000000    0.00000000    0.00000000   -0.84456613 
  -1.50113446   -0.00000000    0.00000000   -0.00000000   -1.50113446    0.00000000    0.00000000    0.00000000   -0.84444973 
  -1.53160144    0.00000000   -0.00000000   -0.00000000   -1.53160144   -0.00000000    0.00000000    0.00000000   -0.84464218 
  -1.53150431   -0.00000000   -0.00000000   -0.00000000   -1.53150431   -0.00000000    0.00000000    0.00000000   -0.84544703 
  -1.51441655   -0.00000000    0.00000000   -0.00000000   -1.51441655    0.00000000    0.00000000    0.00000000   -0.83593124 
  -1.50097104   -0.00000000    0.00000000   -0.00000000   -1.50097104    0.00000000    0.00000000    0.00000000   -0.84494670 
  -1.52149689   -0.00000000    0.00000000   -0.00000000   -1.52149689   -0.00000000    0.00000000    0.00000000   -0.84608274 
  -1.50436268   -0.00000000   -0.00000000   -0.00000000   -1.50436268   -0.00000000    0.00000000    0.00000000   -0.83745927 
  -1.50372793   -0.00000000    0.00000000   -0.00000000   -1.50372793   -0.00000000    0.00000000    0.00000000   -0.83755901 
