natom:   72
displacements:
- atom:    1
  displacement:
    [   0.0100000000000000,  0.0000000000000000,  0.0000000000000000 ]
- atom:    1
  displacement:
    [   0.0000000000000000,  0.0000000000000000,  0.0100000000000000 ]
- atom:    1
  displacement:
    [   0.0000000000000000,  0.0000000000000000, -0.0100000000000000 ]
- atom:    5
  displacement:
    [   0.0100000000000000,  0.0000000000000000,  0.0000000000000000 ]
- atom:    5
  displacement:
    [   0.0000000000000000,  0.0000000000000000,  0.0100000000000000 ]
- atom:    5
  displacement:
    [   0.0000000000000000,  0.0000000000000000, -0.0100000000000000 ]
- atom:    9
  displacement:
    [   0.0100000000000000,  0.0000000000000000,  0.0000000000000000 ]
- atom:    9
  displacement:
    [   0.0000000000000000,  0.0000000000000000,  0.0100000000000000 ]
- atom:    9
  displacement:
    [   0.0000000000000000,  0.0000000000000000, -0.0100000000000000 ]
- atom:   13
  displacement:
    [   0.0100000000000000,  0.0000000000000000,  0.0000000000000000 ]
- atom:   13
  displacement:
    [   0.0000000000000000,  0.0000000000000000,  0.0100000000000000 ]
- atom:   13
  displacement:
    [   0.0000000000000000,  0.0000000000000000, -0.0100000000000000 ]
- atom:   17
  displacement:
    [   0.0100000000000000,  0.0000000000000000,  0.0000000000000000 ]
- atom:   17
  displacement:
    [   0.0000000000000000,  0.0000000000000000,  0.0100000000000000 ]
- atom:   17
  displacement:
    [   0.0000000000000000,  0.0000000000000000, -0.0100000000000000 ]
- atom:   21
  displacement:
    [   0.0100000000000000,  0.0000000000000000,  0.0000000000000000 ]
- atom:   21
  displacement:
    [   0.0000000000000000,  0.0000000000000000,  0.0100000000000000 ]
- atom:   21
  displacement:
    [   0.0000000000000000,  0.0000000000000000, -0.0100000000000000 ]
- atom:   25
  displacement:
    [   0.0100000000000000,  0.0000000000000000,  0.0000000000000000 ]
- atom:   25
  displacement:
    [   0.0000000000000000,  0.0000000000000000,  0.0100000000000000 ]
- atom:   25
  displacement:
    [   0.0000000000000000,  0.0000000000000000, -0.0100000000000000 ]
- atom:   29
  displacement:
    [   0.0100000000000000,  0.0000000000000000,  0.0000000000000000 ]
- atom:   29
  displacement:
    [   0.0000000000000000,  0.0000000000000000,  0.0100000000000000 ]
- atom:   29
  displacement:
    [   0.0000000000000000,  0.0000000000000000, -0.0100000000000000 ]
- atom:   33
  displacement:
    [   0.0100000000000000,  0.0000000000000000,  0.0000000000000000 ]
- atom:   33
  displacement:
    [   0.0000000000000000,  0.0000000000000000,  0.0100000000000000 ]
- atom:   33
  displacement:
    [   0.0000000000000000,  0.0000000000000000, -0.0100000000000000 ]
- atom:   37
  displacement:
    [   0.0100000000000000,  0.0000000000000000,  0.0000000000000000 ]
- atom:   37
  displacement:
    [   0.0000000000000000,  0.0000000000000000,  0.0100000000000000 ]
- atom:   37
  displacement:
    [   0.0000000000000000,  0.0000000000000000, -0.0100000000000000 ]
- atom:   41
  displacement:
    [   0.0100000000000000,  0.0000000000000000,  0.0000000000000000 ]
- atom:   41
  displacement:
    [   0.0000000000000000,  0.0000000000000000,  0.0100000000000000 ]
- atom:   41
  displacement:
    [   0.0000000000000000,  0.0000000000000000, -0.0100000000000000 ]
- atom:   45
  displacement:
    [   0.0100000000000000,  0.0000000000000000,  0.0000000000000000 ]
- atom:   45
  displacement:
    [   0.0000000000000000,  0.0000000000000000,  0.0100000000000000 ]
- atom:   45
  displacement:
    [   0.0000000000000000,  0.0000000000000000, -0.0100000000000000 ]
- atom:   49
  displacement:
    [   0.0100000000000000,  0.0000000000000000,  0.0000000000000000 ]
- atom:   49
  displacement:
    [   0.0000000000000000,  0.0000000000000000,  0.0100000000000000 ]
- atom:   49
  displacement:
    [   0.0000000000000000,  0.0000000000000000, -0.0100000000000000 ]
- atom:   53
  displacement:
    [   0.0100000000000000,  0.0000000000000000,  0.0000000000000000 ]
- atom:   53
  displacement:
    [   0.0000000000000000,  0.0000000000000000,  0.0100000000000000 ]
- atom:   53
  displacement:
    [   0.0000000000000000,  0.0000000000000000, -0.0100000000000000 ]
- atom:   57
  displacement:
    [   0.0100000000000000,  0.0000000000000000,  0.0000000000000000 ]
- atom:   57
  displacement:
    [   0.0000000000000000,  0.0000000000000000,  0.0100000000000000 ]
- atom:   57
  displacement:
    [   0.0000000000000000,  0.0000000000000000, -0.0100000000000000 ]
- atom:   61
  displacement:
    [   0.0100000000000000,  0.0000000000000000,  0.0000000000000000 ]
- atom:   61
  displacement:
    [   0.0000000000000000,  0.0000000000000000,  0.0100000000000000 ]
- atom:   61
  displacement:
    [   0.0000000000000000,  0.0000000000000000, -0.0100000000000000 ]
- atom:   65
  displacement:
    [   0.0100000000000000,  0.0000000000000000,  0.0000000000000000 ]
- atom:   65
  displacement:
    [   0.0000000000000000,  0.0000000000000000,  0.0100000000000000 ]
- atom:   65
  displacement:
    [   0.0000000000000000,  0.0000000000000000, -0.0100000000000000 ]
- atom:   69
  displacement:
    [   0.0100000000000000,  0.0000000000000000,  0.0000000000000000 ]
- atom:   69
  displacement:
    [   0.0000000000000000,  0.0000000000000000,  0.0100000000000000 ]
- atom:   69
  displacement:
    [   0.0000000000000000,  0.0000000000000000, -0.0100000000000000 ]
lattice:
- [     8.4439528999999993,     0.0000000000000000,     0.0000000000000000 ] # a
- [    -4.2219764599999996,     7.3126777199999999,     0.0000000000000000 ] # b
- [     0.0000000000000000,     0.0000000000000000,    41.1036602100000010 ] # c
atoms:
- symbol: Cd # 1
  position: [  0.1666666650000000,  0.3333333350000000,  0.5416053600000000 ]
  mass: 112.411000
- symbol: Cd # 2
  position: [  0.6666666649999999,  0.3333333350000000,  0.5416053600000000 ]
  mass: 112.411000
- symbol: Cd # 3
  position: [  0.1666666650000000,  0.8333333350000001,  0.5416053600000000 ]
  mass: 112.411000
- symbol: Cd # 4
  position: [  0.6666666649999999,  0.8333333350000001,  0.5416053600000000 ]
  mass: 112.411000
- symbol: Cd # 5
  position: [  0.1666666650000000,  0.3333333350000000,  0.3749608500000000 ]
  mass: 112.411000
- symbol: Cd # 6
  position: [  0.6666666649999999,  0.3333333350000000,  0.3749608500000000 ]
  mass: 112.411000
- symbol: Cd # 7
  position: [  0.1666666650000000,  0.8333333350000001,  0.3749608500000000 ]
  mass: 112.411000
- symbol: Cd # 8
  position: [  0.6666666649999999,  0.8333333350000001,  0.3749608500000000 ]
  mass: 112.411000
- symbol: Cd # 9
  position: [  0.0000000000000000,  0.0000000000000000,  0.7083516600000000 ]
  mass: 112.411000
- symbol: Cd # 10
  position: [  0.5000000000000000,  0.0000000000000000,  0.7083516600000000 ]
  mass: 112.411000
- symbol: Cd # 11
  position: [  0.0000000000000000,  0.5000000000000000,  0.7083516600000000 ]
  mass: 112.411000
- symbol: Cd # 12
  position: [  0.5000000000000000,  0.5000000000000000,  0.7083516600000000 ]
  mass: 112.411000
- symbol: Cd # 13
  position: [  0.3333333350000000,  0.1666666650000000,  0.0417022400000000 ]
  mass: 112.411000
- symbol: Cd # 14
  position: [  0.8333333350000001,  0.1666666650000000,  0.0417022400000000 ]
  mass: 112.411000
- symbol: Cd # 15
  position: [  0.3333333350000000,  0.6666666649999999,  0.0417022400000000 ]
  mass: 112.411000
- symbol: Cd # 16
  position: [  0.8333333350000001,  0.6666666649999999,  0.0417022400000000 ]
  mass: 112.411000
- symbol: Cd # 17
  position: [  0.0000000000000000,  0.0000000000000000,  0.2083553100000000 ]
  mass: 112.411000
- symbol: Cd # 18
  position: [  0.5000000000000000,  0.0000000000000000,  0.2083553100000000 ]
  mass: 112.411000
- symbol: Cd # 19
  position: [  0.0000000000000000,  0.5000000000000000,  0.2083553100000000 ]
  mass: 112.411000
- symbol: Cd # 20
  position: [  0.5000000000000000,  0.5000000000000000,  0.2083553100000000 ]
  mass: 112.411000
- symbol: Cd # 21
  position: [  0.0000000000000000,  0.0000000000000000,  0.8750254000000000 ]
  mass: 112.411000
- symbol: Cd # 22
  position: [  0.5000000000000000,  0.0000000000000000,  0.8750254000000000 ]
  mass: 112.411000
- symbol: Cd # 23
  position: [  0.0000000000000000,  0.5000000000000000,  0.8750254000000000 ]
  mass: 112.411000
- symbol: Cd # 24
  position: [  0.5000000000000000,  0.5000000000000000,  0.8750254000000000 ]
  mass: 112.411000
- symbol: I  # 25
  position: [  0.1666666650000000,  0.3333333350000000,  0.0831857100000000 ]
  mass: 126.904470
- symbol: I  # 26
  position: [  0.6666666649999999,  0.3333333350000000,  0.0831857100000000 ]
  mass: 126.904470
- symbol: I  # 27
  position: [  0.1666666650000000,  0.8333333350000001,  0.0831857100000000 ]
  mass: 126.904470
- symbol: I  # 28
  position: [  0.6666666649999999,  0.8333333350000001,  0.0831857100000000 ]
  mass: 126.904470
- symbol: I  # 29
  position: [  0.0000000000000000,  0.0000000000000000,  0.5830873700000000 ]
  mass: 126.904470
- symbol: I  # 30
  position: [  0.5000000000000000,  0.0000000000000000,  0.5830873700000000 ]
  mass: 126.904470
- symbol: I  # 31
  position: [  0.0000000000000000,  0.5000000000000000,  0.5830873700000000 ]
  mass: 126.904470
- symbol: I  # 32
  position: [  0.5000000000000000,  0.5000000000000000,  0.5830873700000000 ]
  mass: 126.904470
- symbol: I  # 33
  position: [  0.3333333350000000,  0.1666666650000000,  0.8335529500000000 ]
  mass: 126.904470
- symbol: I  # 34
  position: [  0.8333333350000001,  0.1666666650000000,  0.8335529500000000 ]
  mass: 126.904470
- symbol: I  # 35
  position: [  0.3333333350000000,  0.6666666649999999,  0.8335529500000000 ]
  mass: 126.904470
- symbol: I  # 36
  position: [  0.8333333350000001,  0.6666666649999999,  0.8335529500000000 ]
  mass: 126.904470
- symbol: I  # 37
  position: [  0.1666666650000000,  0.3333333350000000,  0.9165062400000000 ]
  mass: 126.904470
- symbol: I  # 38
  position: [  0.6666666649999999,  0.3333333350000000,  0.9165062400000000 ]
  mass: 126.904470
- symbol: I  # 39
  position: [  0.1666666650000000,  0.8333333350000001,  0.9165062400000000 ]
  mass: 126.904470
- symbol: I  # 40
  position: [  0.6666666649999999,  0.8333333350000001,  0.9165062400000000 ]
  mass: 126.904470
- symbol: I  # 41
  position: [  0.3333333350000000,  0.1666666650000000,  0.3334803500000000 ]
  mass: 126.904470
- symbol: I  # 42
  position: [  0.8333333350000001,  0.1666666650000000,  0.3334803500000000 ]
  mass: 126.904470
- symbol: I  # 43
  position: [  0.3333333350000000,  0.6666666649999999,  0.3334803500000000 ]
  mass: 126.904470
- symbol: I  # 44
  position: [  0.8333333350000001,  0.6666666649999999,  0.3334803500000000 ]
  mass: 126.904470
- symbol: I  # 45
  position: [  0.1666666650000000,  0.3333333350000000,  0.7498229400000000 ]
  mass: 126.904470
- symbol: I  # 46
  position: [  0.6666666649999999,  0.3333333350000000,  0.7498229400000000 ]
  mass: 126.904470
- symbol: I  # 47
  position: [  0.1666666650000000,  0.8333333350000001,  0.7498229400000000 ]
  mass: 126.904470
- symbol: I  # 48
  position: [  0.6666666649999999,  0.8333333350000001,  0.7498229400000000 ]
  mass: 126.904470
- symbol: I  # 49
  position: [  0.0000000000000000,  0.0000000000000000,  0.4164292500000000 ]
  mass: 126.904470
- symbol: I  # 50
  position: [  0.5000000000000000,  0.0000000000000000,  0.4164292500000000 ]
  mass: 126.904470
- symbol: I  # 51
  position: [  0.0000000000000000,  0.5000000000000000,  0.4164292500000000 ]
  mass: 126.904470
- symbol: I  # 52
  position: [  0.5000000000000000,  0.5000000000000000,  0.4164292500000000 ]
  mass: 126.904470
- symbol: I  # 53
  position: [  0.0000000000000000,  0.0000000000000000,  0.0002271600000000 ]
  mass: 126.904470
- symbol: I  # 54
  position: [  0.5000000000000000,  0.0000000000000000,  0.0002271600000000 ]
  mass: 126.904470
- symbol: I  # 55
  position: [  0.0000000000000000,  0.5000000000000000,  0.0002271600000000 ]
  mass: 126.904470
- symbol: I  # 56
  position: [  0.5000000000000000,  0.5000000000000000,  0.0002271600000000 ]
  mass: 126.904470
- symbol: I  # 57
  position: [  0.3333333350000000,  0.1666666650000000,  0.6668692899999999 ]
  mass: 126.904470
- symbol: I  # 58
  position: [  0.8333333350000001,  0.1666666650000000,  0.6668692899999999 ]
  mass: 126.904470
- symbol: I  # 59
  position: [  0.3333333350000000,  0.6666666649999999,  0.6668692899999999 ]
  mass: 126.904470
- symbol: I  # 60
  position: [  0.8333333350000001,  0.6666666649999999,  0.6668692899999999 ]
  mass: 126.904470
- symbol: I  # 61
  position: [  0.3333333350000000,  0.1666666650000000,  0.5001296400000000 ]
  mass: 126.904470
- symbol: I  # 62
  position: [  0.8333333350000001,  0.1666666650000000,  0.5001296400000000 ]
  mass: 126.904470
- symbol: I  # 63
  position: [  0.3333333350000000,  0.6666666649999999,  0.5001296400000000 ]
  mass: 126.904470
- symbol: I  # 64
  position: [  0.8333333350000001,  0.6666666649999999,  0.5001296400000000 ]
  mass: 126.904470
- symbol: I  # 65
  position: [  0.1666666650000000,  0.3333333350000000,  0.2498342100000000 ]
  mass: 126.904470
- symbol: I  # 66
  position: [  0.6666666649999999,  0.3333333350000000,  0.2498342100000000 ]
  mass: 126.904470
- symbol: I  # 67
  position: [  0.1666666650000000,  0.8333333350000001,  0.2498342100000000 ]
  mass: 126.904470
- symbol: I  # 68
  position: [  0.6666666649999999,  0.8333333350000001,  0.2498342100000000 ]
  mass: 126.904470
- symbol: I  # 69
  position: [  0.3333333350000000,  0.1666666650000000,  0.1668740700000000 ]
  mass: 126.904470
- symbol: I  # 70
  position: [  0.8333333350000001,  0.1666666650000000,  0.1668740700000000 ]
  mass: 126.904470
- symbol: I  # 71
  position: [  0.3333333350000000,  0.6666666649999999,  0.1668740700000000 ]
  mass: 126.904470
- symbol: I  # 72
  position: [  0.8333333350000001,  0.6666666649999999,  0.1668740700000000 ]
  mass: 126.904470