  72   72
1 1
     3.370865000000002     0.000000000000000    -0.000000000000000
     0.000000000000000     3.370865000000002    -0.000000000000000
    -0.000000000000000    -0.000000000000000     3.265181500000000
1 2
    -1.144324423344291     0.000000000000000     0.000000000000000
    -0.000000002016953     0.330608423344318     0.471511572526801
    -0.000000000644760     0.471491971324345     0.911359000000000
1 3
    -0.038124789201201     0.638664657075241    -0.408341000000000
     0.638664658041670    -0.775591210798773    -0.235755786821802
    -0.408324024511466    -0.235745985662172     0.911359000000000
1 4
    -0.038124787454468    -0.638664657075241     0.408341000000000
    -0.638664656024717    -0.775591212545505    -0.235755785704999
     0.408324025156225    -0.235745985662172     0.911359000000000
1 5
     0.008503999999941     0.000000000000000     0.000000000000000
     0.000000000000000     0.008503999999941    -0.000000000000000
    -0.000000000000000    -0.000000000000000    -0.027528500000000
1 6
    -0.008451642824638    -0.000000000000000     0.000000000000000
    -0.000000000006741    -0.003522357175322     0.019427259207322
    -0.000000000026704     0.019527692411055    -0.048698500000000
1 7
    -0.004754678590570     0.002134443297479    -0.016824500000000
     0.002134443300709    -0.007219321409390    -0.009713629626668
    -0.016911477691354    -0.009763846205528    -0.048698500000000
1 8
    -0.004754678584732    -0.002134443297479     0.016824500000000
    -0.002134443293968    -0.007219321415228    -0.009713629580654
     0.016911477718058    -0.009763846205528    -0.048698500000000
1 9
     0.027645563697457    -0.000000000000000     0.000000000000000
     0.000000000055014    -0.012584230364082     0.007249209979706
     0.000000000037346    -0.027310199892188    -0.046517000000000
1 10
    -0.025761000000086    -0.000000000000000     0.000000000000000
     0.000000000000000    -0.025761000000086    -0.000000000000000
    -0.000000000000000    -0.000000000000000    -0.032681500000000
1 11
    -0.002526781872519     0.017420011823728     0.006278000000000
     0.017420011795074     0.017588115205894    -0.003624604981268
    -0.023651326906960     0.013655099946094    -0.046517000000000
1 12
    -0.002526781824876    -0.017420011823728    -0.006278000000000
    -0.017420011850088     0.017588115158251    -0.003624604998438
     0.023651326869614     0.013655099946094    -0.046517000000000
1 13
     0.000125560260134     0.000048104373739     0.000016500000000
     0.000048104373660     0.000181106406518    -0.000009526279419
     0.000012062177836    -0.000006964101615    -0.041916000000000
1 14
     0.000125560260265    -0.000048104373739    -0.000016500000000
    -0.000048104373812     0.000181106406387    -0.000009526279464
    -0.000012062177817    -0.000006964101615    -0.041916000000000
1 15
     0.000208879479579     0.000000000000000     0.000000000000000
     0.000000000000152     0.000097787187073     0.000019052558883
    -0.000000000000019     0.000013928203231    -0.041916000000000
1 16
     0.000308999999992     0.000000000000000     0.000000000000000
     0.000000000000000     0.000308999999992    -0.000000000000000
    -0.000000000000000    -0.000000000000000    -0.041608500000000
1 17
     0.000642130936794    -0.000000000000000     0.000000000000000
     0.000000000000920    -0.000030797603465     0.000033486315612
     0.000000000000703    -0.000513920869798    -0.042235500000000
1 18
    -0.000285000000000    -0.000000000000000     0.000000000000000
     0.000000000000000    -0.000285000000000    -0.000000000000000
    -0.000000000000000    -0.000000000000000    -0.041833000000000
1 19
     0.000137434531201     0.000291386605408     0.000029000000000
     0.000291386604928     0.000473898802128    -0.000016743157766
    -0.000445068529117     0.000256960434899    -0.042235500000000
1 20
     0.000137434531998    -0.000291386605408    -0.000029000000000
    -0.000291386605849     0.000473898801331    -0.000016743157846
     0.000445068528414     0.000256960434899    -0.042235500000000
1 21
     0.000630154869056    -0.000000000000000     0.000000000000000
     0.000000000000908    -0.000033488202382     0.000497675932025
     0.000000000000043    -0.000031710465737    -0.042001500000000
1 22
    -0.000272999999999    -0.000000000000000     0.000000000000000
     0.000000000000000    -0.000272999999999    -0.000000000000000
    -0.000000000000000    -0.000000000000000    -0.041598000000000
1 23
     0.000132422565085     0.000287365879465     0.000431000000000
     0.000287365878992     0.000464244101589    -0.000248837965423
    -0.000027462068914     0.000015855232868    -0.042001500000000
1 24
     0.000132422565871    -0.000287365879465    -0.000431000000000
    -0.000287365879900     0.000464244100803    -0.000248837966602
     0.000027462068871     0.000015855232868    -0.042001500000000
1 25
     0.000002999999990    -0.000000000000000    -0.000000000000000
    -0.000000000000000     0.000002999999990    -0.000000000000000
    -0.000000000000000    -0.000000000000000     0.021149000000000
1 26
     0.000230973720550     0.000000000000000    -0.000000000000000
    -0.000000000000052     0.000269026279434     0.000006350852961
     0.000000000000011    -0.000008041451884     0.021200500000000
1 27
     0.000259513139690     0.000016477241337    -0.000005500000000
     0.000016477241362     0.000240486860293    -0.000003175426488
     0.000006964101610     0.000004020725942     0.021200500000000
1 28
     0.000259513139735    -0.000016477241337     0.000005500000000
    -0.000016477241310     0.000240486860248    -0.000003175426473
    -0.000006964101621     0.000004020725942     0.021200500000000
1 29
    -0.023106228752911    -0.000000000000000     0.000000000000000
     0.000000001021768    -0.770292437933217     0.913550568512979
    -0.000000000970107     0.709407631475694    -0.894331000000000
1 30
     0.093945999999580     0.000000000000000    -0.000000000000000
     0.000000000000000     0.093945999999580     0.000000000000000
    -0.000000000000000    -0.000000000000000    -0.289371000000000
1 31
    -0.583495886080579     0.323541119264420     0.791158000000000
     0.323541118732235    -0.209902780605549    -0.456775283174591
     0.614365030961330    -0.354703815737847    -0.894331000000000
1 32
    -0.583495885195702    -0.323541119264420    -0.791158000000000
    -0.323541119754003    -0.209902781490426    -0.456775285338389
    -0.614365029991223    -0.354703815737847    -0.894331000000000
1 33
     0.000098027997583     0.000079048493442     0.000404000000000
     0.000079048493312     0.000189305335731    -0.000233249508192
    -0.000221206914288     0.000127713871414     0.020998500000000
1 34
     0.000098027997799    -0.000079048493442    -0.000404000000000
    -0.000079048493561     0.000189305335515    -0.000233249509297
     0.000221206913939     0.000127713871414     0.020998500000000
1 35
     0.000234944004589     0.000000000000000     0.000000000000000
     0.000000000000250     0.000052389328725     0.000466499017490
     0.000000000000349    -0.000255427742828     0.020998500000000
1 36
     0.000242999999992     0.000000000000000     0.000000000000000
     0.000000000000000     0.000242999999992    -0.000000000000000
    -0.000000000000000    -0.000000000000000     0.020975500000000
1 37
    -0.000104999999981    -0.000000000000000    -0.000000000000000
     0.000000000000000    -0.000104999999981    -0.000000000000000
    -0.000000000000000    -0.000000000000000     0.021568000000000
1 38
     0.000305553816751    -0.000000000000000    -0.000000000000000
     0.000000000000589    -0.000124887150049     0.000040414518842
     0.000000000000242    -0.000176834591189     0.020860500000000
1 39
    -0.000017276908094    -0.000186386406045    -0.000035000000000
    -0.000186386406327     0.000197943574796    -0.000020207259469
     0.000153143248111     0.000088417295594     0.020860500000000
1 40
    -0.000017276908604     0.000186386406045     0.000035000000000
     0.000186386405739     0.000197943575306    -0.000020207259373
    -0.000153143248353     0.000088417295594     0.020860500000000
1 41
     0.001226320670057    -0.008974310629850     0.006130500000000
    -0.008974310615089    -0.009136320670018    -0.003539445816767
     0.009407028312793    -0.005431150324556     0.021892000000000
1 42
     0.001226320645512     0.008974310629850    -0.006130500000000
     0.008974310643430    -0.009136320645473    -0.003539445833534
    -0.009407028297939    -0.005431150324556     0.021892000000000
1 43
    -0.014317641315510     0.000000000000000     0.000000000000000
    -0.000000000028342     0.006407641315549     0.007078891650301
    -0.000000000014854     0.010862300649112     0.021892000000000
1 44
     0.011223999999982     0.000000000000000     0.000000000000000
    -0.000000000000000     0.011223999999982     0.000000000000000
    -0.000000000000000    -0.000000000000000     0.019282000000000
1 45
    -0.000390000000008    -0.000000000000000    -0.000000000000000
     0.000000000000000    -0.000390000000008     0.000000000000000
    -0.000000000000000    -0.000000000000000     0.009166500000000
1 46
    -0.000486359365995     0.000000000000000    -0.000000000000000
    -0.000000000004978     0.003153692699347    -0.018267939866828
     0.000000000007746    -0.005664358412270     0.025646500000000
1 47
     0.002243679680856     0.001576188779894     0.015820500000000
     0.001576188782279     0.000423653652496     0.009133969955048
     0.004905478277131     0.002832179206135     0.025646500000000
1 48
     0.002243679685167    -0.001576188779894    -0.015820500000000
    -0.001576188777301     0.000423653648185     0.009133969911779
    -0.004905478284877     0.002832179206135     0.025646500000000
1 49
     0.002534846832620    -0.000000000000000    -0.000000000000000
     0.000000000003512    -0.000033513499315     0.005306426323947
     0.000000000000346    -0.000252939708957     0.006721000000000
1 50
     0.023931999999958     0.000000000000000    -0.000000000000000
     0.000000000000000     0.023931999999958     0.000000000000000
    -0.000000000000000    -0.000000000000000     0.040478500000000
1 51
     0.000608576582148     0.001112132646801     0.004595500000000
     0.001112132644971     0.001892756751157    -0.002653213155689
    -0.000219052213748     0.000126469854478     0.006721000000000
1 52
     0.000608576585190    -0.001112132646801    -0.004595500000000
    -0.001112132648483     0.001892756748115    -0.002653213168258
     0.000219052213402     0.000126469854478     0.006721000000000
1 53
    -0.000006660254034     0.000000000000000     0.000000000000000
    -0.000000000000048     0.000028660254042     0.000026558112382
    -0.000000000000030     0.000021969655115     0.020769500000000
1 54
    -0.000046999999999    -0.000000000000000     0.000000000000000
    -0.000000000000000    -0.000046999999999    -0.000000000000000
    -0.000000000000000    -0.000000000000000     0.020568000000000
1 55
     0.000019830127044    -0.000015294228635     0.000023000000000
    -0.000015294228610     0.000002169872964    -0.000013279056159
     0.000019026279456    -0.000010984827557     0.020769500000000
1 56
     0.000019830127002     0.000015294228635    -0.000023000000000
     0.000015294228658     0.000002169873006    -0.000013279056222
    -0.000019026279426    -0.000010984827557     0.020769500000000
1 57
    -0.000296709594210     0.003022503004798     0.003561500000000
     0.003022502999827     0.003193376260835    -0.002056232978781
    -0.001330501848702     0.000768165599924     0.006482500000000
1 58
    -0.000296709585944    -0.003022503004798    -0.003561500000000
    -0.003022503009372     0.003193376252569    -0.002056232988521
     0.001330501846601     0.000768165599924     0.006482500000000
1 59
     0.004938419180091    -0.000000000000000     0.000000000000000
     0.000000000009545    -0.002041752513466     0.004112465967302
     0.000000000002101    -0.001536331199849     0.006482500000000
1 60
     0.014515999999984     0.000000000000000     0.000000000000000
    -0.000000000000000     0.014515999999984     0.000000000000000
    -0.000000000000000    -0.000000000000000     0.040536000000000
1 61
    -0.583325508381052     0.323618407389547     0.791776500000000
     0.323618406857235    -0.209643158266119    -0.457132374315227
     0.614156424900012    -0.354583376972282    -0.894452500000000
1 62
    -0.583325507495963    -0.323618407389547    -0.791776500000000
    -0.323618407879247    -0.209643159151207    -0.457132376480717
    -0.614156423930235    -0.354583376972282    -0.894452500000000
1 63
    -0.022801984093741    -0.000000000000000     0.000000000000000
     0.000000001022012    -0.770166682553430     0.914264750795944
    -0.000000000969777     0.709166753944564    -0.894452500000000
1 64
     0.093981000000436     0.000000000000000     0.000000000000000
     0.000000000000000     0.093981000000436    -0.000000000000000
    -0.000000000000000    -0.000000000000000    -0.288361500000000
1 65
     0.000224000000045     0.000000000000000    -0.000000000000000
     0.000000000000000     0.000224000000045     0.000000000000000
    -0.000000000000000    -0.000000000000000     0.021700000000000
1 66
    -0.000043747852127     0.000000000000000    -0.000000000000000
    -0.000000000000219     0.000116414518895     0.000538090450867
    -0.000000000000098     0.000071917725159     0.020558500000000
1 67
     0.000076373926045     0.000069352341020    -0.000466000000000
     0.000069352341125    -0.000003707259276    -0.000269045226071
    -0.000062282576919    -0.000035958862579     0.020558500000000
1 68
     0.000076373926235    -0.000069352341020     0.000466000000000
    -0.000069352340906    -0.000003707259466    -0.000269045224796
     0.000062282577017    -0.000035958862579     0.020558500000000
1 69
     0.000119581730144    -0.000007358439184    -0.000263000000000
    -0.000007358439171     0.000111084936437     0.000151843120432
    -0.000168004464297     0.000096997422614     0.020909500000000
1 70
     0.000119581730124     0.000007358439184     0.000263000000000
     0.000007358439195     0.000111084936457     0.000151843121152
     0.000168004464032     0.000096997422614     0.020909500000000
1 71
     0.000106836539604     0.000000000000000     0.000000000000000
    -0.000000000000023     0.000123830126977    -0.000303686241584
     0.000000000000265    -0.000193994845227     0.020909500000000
1 72
     0.000161999999960     0.000000000000000     0.000000000000000
    -0.000000000000000     0.000161999999960    -0.000000000000000
    -0.000000000000000    -0.000000000000000     0.020638000000000
2 1
    -1.144324423344291    -0.000000000000000     0.000000000000000
    -0.000000002016953     0.330608423344318     0.471511572526801
    -0.000000000644760     0.471491971324345     0.911359000000000
2 2
     3.370865000000002     0.000000000000000    -0.000000000000000
     0.000000000000000     3.370865000000002    -0.000000000000000
     0.000000000000000     0.000000000000000     3.265181500000000
2 3
    -0.038124787454468    -0.638664657075241     0.408341000000000
    -0.638664656024717    -0.775591212545505    -0.235755785704999
     0.408324025156225    -0.235745985662172     0.911359000000000
2 4
    -0.038124789201201     0.638664657075241    -0.408341000000000
     0.638664658041670    -0.775591210798773    -0.235755786821802
    -0.408324024511466    -0.235745985662173     0.911359000000000
2 5
    -0.008451642824638    -0.000000000000000     0.000000000000000
    -0.000000000006741    -0.003522357175322     0.019427259207322
    -0.000000000026704     0.019527692411055    -0.048698500000000
2 6
     0.008503999999941     0.000000000000000     0.000000000000000
     0.000000000000000     0.008503999999941    -0.000000000000000
     0.000000000000000     0.000000000000000    -0.027528500000000
2 7
    -0.004754678584732    -0.002134443297479     0.016824500000000
    -0.002134443293968    -0.007219321415228    -0.009713629580654
     0.016911477718058    -0.009763846205528    -0.048698500000000
2 8
    -0.004754678590570     0.002134443297479    -0.016824500000000
     0.002134443300709    -0.007219321409390    -0.009713629626668
    -0.016911477691354    -0.009763846205528    -0.048698500000000
2 9
    -0.025761000000086    -0.000000000000000     0.000000000000000
    -0.000000000000000    -0.025761000000086    -0.000000000000000
     0.000000000000000     0.000000000000000    -0.032681500000000
2 10
     0.027645563697457     0.000000000000000     0.000000000000000
     0.000000000055014    -0.012584230364082     0.007249209979706
     0.000000000037346    -0.027310199892188    -0.046517000000000
2 11
    -0.002526781824876    -0.017420011823728    -0.006278000000000
    -0.017420011850088     0.017588115158251    -0.003624604998438
     0.023651326869614     0.013655099946094    -0.046517000000000
2 12
    -0.002526781872519     0.017420011823728     0.006278000000000
     0.017420011795074     0.017588115205894    -0.003624604981268
    -0.023651326906960     0.013655099946094    -0.046517000000000
2 13
     0.000125560260265    -0.000048104373739    -0.000016500000000
    -0.000048104373812     0.000181106406387    -0.000009526279464
    -0.000012062177817    -0.000006964101615    -0.041916000000000
2 14
     0.000125560260134     0.000048104373739     0.000016500000000
     0.000048104373660     0.000181106406518    -0.000009526279419
     0.000012062177836    -0.000006964101615    -0.041916000000000
2 15
     0.000308999999992     0.000000000000000     0.000000000000000
     0.000000000000000     0.000308999999992    -0.000000000000000
     0.000000000000000     0.000000000000000    -0.041608500000000
2 16
     0.000208879479579     0.000000000000000     0.000000000000000
     0.000000000000152     0.000097787187073     0.000019052558883
    -0.000000000000019     0.000013928203231    -0.041916000000000
2 17
    -0.000285000000000    -0.000000000000000     0.000000000000000
    -0.000000000000000    -0.000285000000000    -0.000000000000000
     0.000000000000000     0.000000000000000    -0.041833000000000
2 18
     0.000642130936794     0.000000000000000     0.000000000000000
     0.000000000000920    -0.000030797603465     0.000033486315612
     0.000000000000703    -0.000513920869798    -0.042235500000000
2 19
     0.000137434531998    -0.000291386605408    -0.000029000000000
    -0.000291386605849     0.000473898801331    -0.000016743157846
     0.000445068528414     0.000256960434899    -0.042235500000000
2 20
     0.000137434531201     0.000291386605408     0.000029000000000
     0.000291386604928     0.000473898802128    -0.000016743157766
    -0.000445068529117     0.000256960434899    -0.042235500000000
2 21
    -0.000272999999999    -0.000000000000000     0.000000000000000
    -0.000000000000000    -0.000272999999999    -0.000000000000000
     0.000000000000000     0.000000000000000    -0.041598000000000
2 22
     0.000630154869056     0.000000000000000     0.000000000000000
     0.000000000000908    -0.000033488202382     0.000497675932025
     0.000000000000043    -0.000031710465737    -0.042001500000000
2 23
     0.000132422565871    -0.000287365879465    -0.000431000000000
    -0.000287365879900     0.000464244100803    -0.000248837966602
     0.000027462068871     0.000015855232868    -0.042001500000000
2 24
     0.000132422565085     0.000287365879465     0.000431000000000
     0.000287365878992     0.000464244101589    -0.000248837965423
    -0.000027462068914     0.000015855232868    -0.042001500000000
2 25
     0.000230973720550     0.000000000000000    -0.000000000000000
    -0.000000000000052     0.000269026279434     0.000006350852961
     0.000000000000011    -0.000008041451884     0.021200500000000
2 26
     0.000002999999990     0.000000000000000    -0.000000000000000
    -0.000000000000000     0.000002999999990    -0.000000000000000
     0.000000000000000     0.000000000000000     0.021149000000000
2 27
     0.000259513139735    -0.000016477241337     0.000005500000000
    -0.000016477241310     0.000240486860248    -0.000003175426473
    -0.000006964101621     0.000004020725942     0.021200500000000
2 28
     0.000259513139690     0.000016477241337    -0.000005500000000
     0.000016477241362     0.000240486860293    -0.000003175426488
     0.000006964101610     0.000004020725942     0.021200500000000
2 29
     0.093945999999580     0.000000000000000    -0.000000000000000
     0.000000000000000     0.093945999999580     0.000000000000000
     0.000000000000000     0.000000000000000    -0.289371000000000
2 30
    -0.023106228752911    -0.000000000000000     0.000000000000000
     0.000000001021768    -0.770292437933217     0.913550568512979
    -0.000000000970107     0.709407631475694    -0.894331000000000
2 31
    -0.583495885195702    -0.323541119264420    -0.791158000000000
    -0.323541119754003    -0.209902781490426    -0.456775285338389
    -0.614365029991223    -0.354703815737847    -0.894331000000000
2 32
    -0.583495886080579     0.323541119264420     0.791158000000000
     0.323541118732235    -0.209902780605549    -0.456775283174590
     0.614365030961330    -0.354703815737847    -0.894331000000000
2 33
     0.000098027997799    -0.000079048493442    -0.000404000000000
    -0.000079048493561     0.000189305335515    -0.000233249509297
     0.000221206913939     0.000127713871414     0.020998500000000
2 34
     0.000098027997583     0.000079048493442     0.000404000000000
     0.000079048493312     0.000189305335731    -0.000233249508192
    -0.000221206914288     0.000127713871414     0.020998500000000
2 35
     0.000242999999992     0.000000000000000     0.000000000000000
     0.000000000000000     0.000242999999992    -0.000000000000000
     0.000000000000000     0.000000000000000     0.020975500000000
2 36
     0.000234944004589     0.000000000000000     0.000000000000000
     0.000000000000250     0.000052389328725     0.000466499017490
     0.000000000000349    -0.000255427742828     0.020998500000000
2 37
     0.000305553816751     0.000000000000000    -0.000000000000000
     0.000000000000589    -0.000124887150049     0.000040414518842
     0.000000000000242    -0.000176834591189     0.020860500000000
2 38
    -0.000104999999981    -0.000000000000000    -0.000000000000000
    -0.000000000000000    -0.000104999999981    -0.000000000000000
     0.000000000000000     0.000000000000000     0.021568000000000
2 39
    -0.000017276908604     0.000186386406045     0.000035000000000
     0.000186386405739     0.000197943575306    -0.000020207259373
    -0.000153143248353     0.000088417295594     0.020860500000000
2 40
    -0.000017276908094    -0.000186386406045    -0.000035000000000
    -0.000186386406327     0.000197943574796    -0.000020207259469
     0.000153143248111     0.000088417295594     0.020860500000000
2 41
     0.001226320645512     0.008974310629850    -0.006130500000000
     0.008974310643430    -0.009136320645473    -0.003539445833534
    -0.009407028297939    -0.005431150324556     0.021892000000000
2 42
     0.001226320670057    -0.008974310629850     0.006130500000000
    -0.008974310615089    -0.009136320670018    -0.003539445816767
     0.009407028312793    -0.005431150324556     0.021892000000000
2 43
     0.011223999999982     0.000000000000000     0.000000000000000
     0.000000000000000     0.011223999999982     0.000000000000000
     0.000000000000000     0.000000000000000     0.019282000000000
2 44
    -0.014317641315510    -0.000000000000000     0.000000000000000
    -0.000000000028342     0.006407641315549     0.007078891650301
    -0.000000000014854     0.010862300649112     0.021892000000000
2 45
    -0.000486359365995     0.000000000000000    -0.000000000000000
    -0.000000000004978     0.003153692699347    -0.018267939866828
     0.000000000007746    -0.005664358412270     0.025646500000000
2 46
    -0.000390000000008    -0.000000000000000    -0.000000000000000
    -0.000000000000000    -0.000390000000008     0.000000000000000
     0.000000000000000     0.000000000000000     0.009166500000000
2 47
     0.002243679685167    -0.001576188779894    -0.015820500000000
    -0.001576188777301     0.000423653648185     0.009133969911779
    -0.004905478284877     0.002832179206135     0.025646500000000
2 48
     0.002243679680856     0.001576188779894     0.015820500000000
     0.001576188782279     0.000423653652496     0.009133969955048
     0.004905478277131     0.002832179206135     0.025646500000000
2 49
     0.023931999999958     0.000000000000000    -0.000000000000000
     0.000000000000000     0.023931999999958     0.000000000000000
     0.000000000000000     0.000000000000000     0.040478500000000
2 50
     0.002534846832620     0.000000000000000    -0.000000000000000
     0.000000000003512    -0.000033513499315     0.005306426323947
     0.000000000000346    -0.000252939708957     0.006721000000000
2 51
     0.000608576585190    -0.001112132646801    -0.004595500000000
    -0.001112132648483     0.001892756748115    -0.002653213168258
     0.000219052213402     0.000126469854478     0.006721000000000
2 52
     0.000608576582148     0.001112132646801     0.004595500000000
     0.001112132644971     0.001892756751157    -0.002653213155689
    -0.000219052213748     0.000126469854478     0.006721000000000
2 53
    -0.000046999999999    -0.000000000000000     0.000000000000000
    -0.000000000000000    -0.000046999999999    -0.000000000000000
     0.000000000000000     0.000000000000000     0.020568000000000
2 54
    -0.000006660254034     0.000000000000000     0.000000000000000
    -0.000000000000048     0.000028660254042     0.000026558112382
    -0.000000000000030     0.000021969655115     0.020769500000000
2 55
     0.000019830127002     0.000015294228635    -0.000023000000000
     0.000015294228658     0.000002169873006    -0.000013279056222
    -0.000019026279426    -0.000010984827557     0.020769500000000
2 56
     0.000019830127044    -0.000015294228635     0.000023000000000
    -0.000015294228610     0.000002169872964    -0.000013279056159
     0.000019026279456    -0.000010984827557     0.020769500000000
2 57
    -0.000296709585944    -0.003022503004798    -0.003561500000000
    -0.003022503009372     0.003193376252569    -0.002056232988521
     0.001330501846601     0.000768165599924     0.006482500000000
2 58
    -0.000296709594210     0.003022503004798     0.003561500000000
     0.003022502999827     0.003193376260835    -0.002056232978781
    -0.001330501848702     0.000768165599924     0.006482500000000
2 59
     0.014515999999984     0.000000000000000     0.000000000000000
     0.000000000000000     0.014515999999984     0.000000000000000
     0.000000000000000     0.000000000000000     0.040536000000000
2 60
     0.004938419180091     0.000000000000000     0.000000000000000
     0.000000000009545    -0.002041752513466     0.004112465967302
     0.000000000002101    -0.001536331199849     0.006482500000000
2 61
    -0.583325507495963    -0.323618407389547    -0.791776500000000
    -0.323618407879247    -0.209643159151208    -0.457132376480717
    -0.614156423930235    -0.354583376972282    -0.894452500000000
2 62
    -0.583325508381052     0.323618407389547     0.791776500000000
     0.323618406857235    -0.209643158266119    -0.457132374315227
     0.614156424900012    -0.354583376972282    -0.894452500000000
2 63
     0.093981000000436     0.000000000000000     0.000000000000000
     0.000000000000000     0.093981000000436    -0.000000000000000
     0.000000000000000     0.000000000000000    -0.288361500000000
2 64
    -0.022801984093741    -0.000000000000000     0.000000000000000
     0.000000001022012    -0.770166682553430     0.914264750795944
    -0.000000000969777     0.709166753944564    -0.894452500000000
2 65
    -0.000043747852127     0.000000000000000    -0.000000000000000
    -0.000000000000219     0.000116414518895     0.000538090450867
    -0.000000000000098     0.000071917725159     0.020558500000000
2 66
     0.000224000000045     0.000000000000000    -0.000000000000000
     0.000000000000000     0.000224000000045     0.000000000000000
     0.000000000000000     0.000000000000000     0.021700000000000
2 67
     0.000076373926235    -0.000069352341020     0.000466000000000
    -0.000069352340906    -0.000003707259466    -0.000269045224796
     0.000062282577017    -0.000035958862579     0.020558500000000
2 68
     0.000076373926045     0.000069352341020    -0.000466000000000
     0.000069352341125    -0.000003707259276    -0.000269045226071
    -0.000062282576919    -0.000035958862579     0.020558500000000
2 69
     0.000119581730124     0.000007358439184     0.000263000000000
     0.000007358439195     0.000111084936457     0.000151843121152
     0.000168004464032     0.000096997422614     0.020909500000000
2 70
     0.000119581730144    -0.000007358439184    -0.000263000000000
    -0.000007358439171     0.000111084936437     0.000151843120432
    -0.000168004464297     0.000096997422614     0.020909500000000
2 71
     0.000161999999960     0.000000000000000     0.000000000000000
     0.000000000000000     0.000161999999960    -0.000000000000000
     0.000000000000000     0.000000000000000     0.020638000000000
2 72
     0.000106836539604     0.000000000000000     0.000000000000000
    -0.000000000000023     0.000123830126977    -0.000303686241584
     0.000000000000265    -0.000193994845227     0.020909500000000
3 1
    -0.038124789201201     0.638664657075241    -0.408341000000000
     0.638664658041670    -0.775591210798773    -0.235755786821802
    -0.408324024511466    -0.235745985662173     0.911359000000000
3 2
    -0.038124787454468    -0.638664657075241     0.408341000000000
    -0.638664656024717    -0.775591212545505    -0.235755785704999