72   
54   

1    
  0.0100000000000000   0.0000000000000000   0.0000000000000000
  -0.0337086500   -0.0000000200    0.0005949400
   0.0114439100    0.0000008100    0.0006123100
   0.0003810100   -0.0063866200    0.0046963800
   0.0003808200    0.0063855200   -0.0034704400
  -0.0000850400    0.0000004300   -0.0000822400
   0.0000845100   -0.0000004600   -0.0000815100
   0.0000482900   -0.0000213400    0.0000861000
   0.0000468100    0.0000213600   -0.0002503900
  -0.0002764500   -0.0000003900   -0.0001589000
   0.0002576100    0.0000006300   -0.0001582200
   0.0000244100   -0.0001742400   -0.0002212400
   0.0000261200    0.0001741700   -0.0000956800
  -0.0000012600   -0.0000004300   -0.0001147600
  -0.0000012500    0.0000005300   -0.0001144300
  -0.0000020900    0.0000000600   -0.0001145900
  -0.0000030900    0.0000000600   -0.0001145900
  -0.0000064200    0.0000000200   -0.0001149800
   0.0000028500    0.0000000000   -0.0001149800
  -0.0000013500   -0.0000029000   -0.0001152700
  -0.0000014000    0.0000029300   -0.0001146900
  -0.0000063000   -0.0000000100   -0.0000511500
   0.0000027300   -0.0000000100   -0.0000511600
  -0.0000013200   -0.0000029100   -0.0000554500
  -0.0000013300    0.0000028400   -0.0000468300
  -0.0000000300    0.0000000700    0.0003675700
  -0.0000023100    0.0000000700    0.0003675600
  -0.0000025900   -0.0000001100    0.0003676000
  -0.0000026000    0.0000002200    0.0003674900
   0.0002313900    0.0000260600    0.0009504300
  -0.0009394600    0.0000030700    0.0009745100
   0.0057099000   -0.0031419900   -0.0067994700
   0.0059596900    0.0033294000    0.0090236900
  -0.0000009900   -0.0000007100   -0.0011491400
  -0.0000009700    0.0000008700   -0.0011410600
  -0.0000023500    0.0000000600   -0.0011451000
  -0.0000024300    0.0000000600   -0.0011451300
   0.0000010500   -0.0000001400    0.0007541100
  -0.0000030600   -0.0000001400    0.0007541400
   0.0000001900    0.0000017400    0.0007545200
   0.0000001600   -0.0000019800    0.0007538200
  -0.0000125800    0.0000896500   -0.0007439400
  -0.0000119500   -0.0000898300   -0.0006213300
   0.0001431800   -0.0000002500   -0.0006826900
  -0.0001122400    0.0000001300   -0.0006824800
   0.0000039000    0.0000000600    0.0010851500
   0.0000048600   -0.0000002100    0.0010856700
  -0.0000221800   -0.0000157600    0.0009270500
  -0.0000226900    0.0000157700    0.0012434600
  -0.0000253500    0.0000003500    0.0012169700
  -0.0002393200    0.0000003100    0.0012152300
  -0.0000060600   -0.0000111400    0.0011702000
  -0.0000061100    0.0000111000    0.0012621100
   0.0000000700   -0.0000000200   -0.0011415200
   0.0000004700   -0.0000000100   -0.0011415800
  -0.0000001900    0.0000001200   -0.0011417100
  -0.0000002100   -0.0000001800   -0.0011412500
   0.0000029100   -0.0000299800   -0.0008505600
   0.0000030300    0.0000304600   -0.0007793300
  -0.0000493900   -0.0000000200   -0.0008157400
  -0.0001451600    0.0000001200   -0.0008139100
   0.0059580500   -0.0033303200   -0.0089093000
   0.0057081300    0.0031426200    0.0069262300
   0.0002283500   -0.0000261500   -0.0008298400
  -0.0009398100   -0.0000031900   -0.0008538900
  -0.0000022400   -0.0000003300    0.0007178300
   0.0000004300   -0.0000003400    0.0007178600
  -0.0000007800   -0.0000010900    0.0007225200
  -0.0000007400    0.0000003100    0.0007132000
  -0.0000011800    0.0000003800   -0.0005619000
  -0.0000012100    0.0000002300   -0.0005671600
  -0.0000010700    0.0000003300   -0.0005645300
  -0.0000016200    0.0000002900   -0.0005645500

1    
  0.0000000000000000   0.0000000000000000   0.0100000000000000
   0.0000000000    0.0000000000   -0.0320108600
   0.0000000000   -0.0047149600   -0.0085012600
   0.0040832700    0.0023574800   -0.0085012600
  -0.0040832700    0.0023574800   -0.0085012600
   0.0000000000    0.0000000000    0.0001932500
   0.0000000000   -0.0001964700    0.0004046900
   0.0001701500    0.0000982400    0.0004046900
  -0.0001701500    0.0000982400    0.0004046900
   0.0000000000    0.0002721200    0.0003058000
   0.0000000000    0.0000000000    0.0001685600
   0.0002356700   -0.0001360600    0.0003058000
  -0.0002356700   -0.0001360600    0.0003058000
  -0.0000001200    0.0000000700    0.0003035700
   0.0000001200    0.0000000700    0.0003035700
   0.0000000000   -0.0000001400    0.0003035700
   0.0000000000    0.0000000000    0.0003005000
   0.0000000000    0.0000051800    0.0003067200
   0.0000000000    0.0000000000    0.0003027000
   0.0000044800   -0.0000025900    0.0003067200
  -0.0000044800   -0.0000025900    0.0003067200
   0.0000000000    0.0000003500    0.0003681800
   0.0000000000    0.0000000000    0.0003641000
   0.0000003000   -0.0000001700    0.0003681800
  -0.0000003000   -0.0000001700    0.0003681800
   0.0000000000    0.0000000000    0.0001522400
   0.0000000000    0.0000000800    0.0001516600
  -0.0000000700   -0.0000000400    0.0001516600
   0.0000000700   -0.0000000400    0.0001516600
   0.0000000000   -0.0072088100    0.0099599700
   0.0000000000    0.0000000000    0.0038636400
  -0.0062430200    0.0036044100    0.0099599700
   0.0062430200    0.0036044100    0.0099599700
   0.0000022100   -0.0000012800   -0.0013530100
  -0.0000022100   -0.0000012800   -0.0013530100
   0.0000000000    0.0000025500   -0.0013530100
   0.0000000000    0.0000000000   -0.0013528400
   0.0000000000    0.0000000000    0.0005347900
   0.0000000000    0.0000017800    0.0005418900
  -0.0000015400   -0.0000008900    0.0005418900
   0.0000015400   -0.0000008900    0.0005418900
  -0.0000943300    0.0000544600   -0.0008980500
   0.0000943300    0.0000544600   -0.0008980500
   0.0000000000   -0.0001089300   -0.0008980500
   0.0000000000    0.0000000000   -0.0008713200
   0.0000000000    0.0000000000    0.0009897000
   0.0000000000    0.0000562200    0.0008253600
  -0.0000486900   -0.0000281100    0.0008253600
   0.0000486900   -0.0000281100    0.0008253600
   0.0000000000    0.0000027800    0.0011446000
   0.0000000000    0.0000000000    0.0008047100
   0.0000024100   -0.0000013900    0.0011446000
  -0.0000024100   -0.0000013900    0.0011446000
   0.0000000000   -0.0000002200   -0.0013470500
   0.0000000000    0.0000000000   -0.0013450500
  -0.0000001900    0.0000001100   -0.0013470500
   0.0000001900    0.0000001100   -0.0013470500
   0.0000131500   -0.0000075900   -0.0008776600
  -0.0000131500   -0.0000075900   -0.0008776600
   0.0000000000    0.0000151900   -0.0008776600
   0.0000000000    0.0000000000   -0.0012159500
  -0.0060424400    0.0034886000    0.0080473900
   0.0060424400    0.0034886000    0.0080473900
   0.0000000000   -0.0069772100    0.0080473900
   0.0000000000    0.0000000000    0.0020332700
   0.0000000000    0.0000000000    0.0004978600
   0.0000000000   -0.0000007100    0.0005094400
   0.0000006200    0.0000003600    0.0005094400
  -0.0000006200    0.0000003600    0.0005094400
   0.0000017000   -0.0000009800   -0.0007721800
  -0.0000017000   -0.0000009800   -0.0007721800
   0.0000000000    0.0000019600   -0.0007721800
   0.0000000000    0.0000000000   -0.0007694700

1    
  0.0000000000000000   0.0000000000000000  -0.0100000000000000
   0.0000000000    0.0000000000    0.0332927700
   0.0000000000    0.0047148800    0.0097259200
  -0.0040832100   -0.0023574400    0.0097259200
   0.0040832100   -0.0023574400    0.0097259200
   0.0000000000    0.0000000000   -0.0003573200
   0.0000000000    0.0001940800   -0.0005692800
  -0.0001680800   -0.0000970400   -0.0005692800
   0.0001680800   -0.0000970400   -0.0005692800
   0.0000000000   -0.0002740800   -0.0006245400
   0.0000000000    0.0000000000   -0.0004850700
  -0.0002373600    0.0001370400   -0.0006245400
   0.0002373600    0.0001370400   -0.0006245400
   0.0000001200   -0.0000000700   -0.0005347500
  -0.0000001200   -0.0000000700   -0.0005347500
   0.0000000000    0.0000001400   -0.0005347500
   0.0000000000    0.0000000000   -0.0005316700
   0.0000000000   -0.0000051000   -0.0005379900
   0.0000000000    0.0000000000   -0.0005339600
  -0.0000044200    0.0000025500   -0.0005379900
   0.0000044200    0.0000025500   -0.0005379900
   0.0000000000   -0.0000002900   -0.0004718500
   0.0000000000    0.0000000000   -0.0004678600
  -0.0000002500    0.0000001400   -0.0004718500
   0.0000002500    0.0000001400   -0.0004718500
   0.0000000000    0.0000000000    0.0005752200
   0.0000000000   -0.0000000800    0.0005756700
   0.0000000700    0.0000000400    0.0005756700
  -0.0000000700    0.0000000400    0.0005756700
   0.0000000000    0.0069793400   -0.0079266500
   0.0000000000    0.0000000000   -0.0019237800
   0.0060442800   -0.0034896700   -0.0079266500
  -0.0060442800   -0.0034896700   -0.0079266500
  -0.0000022100    0.0000012800   -0.0009330400
   0.0000022100    0.0000012800   -0.0009330400
   0.0000000000   -0.0000025600   -0.0009330400
   0.0000000000    0.0000000000   -0.0009333300
   0.0000000000    0.0000000000    0.0009661500
   0.0000000000   -0.0000017600    0.0009591000
   0.0000015200    0.0000008800    0.0009591000
  -0.0000015200    0.0000008800    0.0009591000
   0.0000938100   -0.0000541600   -0.0004602100
  -0.0000938100   -0.0000541600   -0.0004602100
   0.0000000000    0.0001083200   -0.0004602100
   0.0000000000    0.0000000000   -0.0004856800
   0.0000000000    0.0000000000    0.0011730300
   0.0000000000   -0.0000570700    0.0013382900
   0.0000494200    0.0000285300    0.0013382900
  -0.0000494200    0.0000285300    0.0013382900
   0.0000000000   -0.0000022800    0.0012790200
   0.0000000000    0.0000000000    0.0016142800
  -0.0000019700    0.0000011400    0.0012790200
   0.0000019700    0.0000011400    0.0012790200
   0.0000000000    0.0000002200   -0.0009316600
   0.0000000000    0.0000000000   -0.0009336900
   0.0000001900   -0.0000001100   -0.0009316600
  -0.0000001900   -0.0000001100   -0.0009316600
  -0.0000134600    0.0000077700   -0.0007480100
   0.0000134600    0.0000077700   -0.0007480100
   0.0000000000   -0.0000155400   -0.0007480100
   0.0000000000    0.0000000000   -0.0004052300
   0.0062406900   -0.0036030600   -0.0098416600
  -0.0062406900   -0.0036030600   -0.0098416600
   0.0000000000    0.0072061300   -0.0098416600
   0.0000000000    0.0000000000   -0.0037339600
   0.0000000000    0.0000000000    0.0009318600
   0.0000000000    0.0000007200    0.0009206100
  -0.0000006300   -0.0000003600    0.0009206100
   0.0000006300   -0.0000003600    0.0009206100
  -0.0000016600    0.0000009600   -0.0003539900
   0.0000016600    0.0000009600   -0.0003539900
   0.0000000000   -0.0000019200   -0.0003539900
   0.0000000000    0.0000000000   -0.0003567100

5    
  0.0100000000000000   0.0000000000000000   0.0000000000000000
  -0.0000845400   -0.0000004500    0.0006131200
   0.0000850300    0.0000004200    0.0006122300
   0.0000473100   -0.0000214400    0.0007819400
   0.0000488200    0.0000212500    0.0004437900
  -0.0337286800    0.0000000700   -0.0000787500
   0.0114420000    0.0000008700   -0.0000827000
   0.0003797200   -0.0063862200    0.0040048800
   0.0003795000    0.0063852100   -0.0041690500
   0.0000074100    0.0000000600   -0.0001587500
  -0.0000099200    0.0000000600   -0.0001587700
  -0.0000008800    0.0000048300   -0.0001546600
  -0.0000008800   -0.0000047300   -0.0001628600
  -0.0000009300   -0.0000044200   -0.0001110900
  -0.0000009400    0.0000045500   -0.0001193000
  -0.0000087100    0.0000000400   -0.0001152000
   0.0000062800    0.0000000400   -0.0001152000
  -0.0002773600   -0.0000000800   -0.0001151100
   0.0002594300    0.0000001100   -0.0001153000
   0.0000258900   -0.0001752600   -0.0003532500
   0.0000262100    0.0001750700    0.0001224400
  -0.0000019000   -0.0000000400   -0.0000514700
  -0.0000018600   -0.0000000600   -0.0000514900
  -0.0000005300   -0.0000007900   -0.0000515900
  -0.0000005600    0.0000007700   -0.0000513900
   0.0000022900    0.0000000600    0.0003647000
  -0.0000025500    0.0000000400    0.0003646700
  -0.0000006300    0.0000011700    0.0003535600
  -0.0000006400   -0.0000010400    0.0003757800
   0.0001409400    0.0000001600    0.0009726700
  -0.0001110700   -0.0000002300    0.0009724300
  -0.0000124000    0.0000887100    0.0009109400
  -0.0000130200   -0.0000887100    0.0010341800
  -0.0000001500    0.0000001600   -0.0011434200
  -0.0000001400   -0.0000000400   -0.0011435800
   0.0000000200    0.0000000600   -0.0011434600
   0.0000004500    0.0000000600   -0.0011434700
   0.0000010800   -0.0000001300    0.0007515800
  -0.0000012300   -0.0000001400    0.0007515900
  -0.0000014700   -0.0000002800    0.0007517000
  -0.0000014800    0.0000000200    0.0007514800
   0.0058713900   -0.0032886000   -0.0087365800
   0.0056212000    0.0031005100    0.0071012800
   0.0002141600   -0.0000260700   -0.0006558700
  -0.0009385000   -0.0000032500   -0.0006800800
  -0.0000053300   -0.0000000500    0.0010828500
   0.0000045100   -0.0000000400    0.0010828900
   0.0000007900   -0.0000021900    0.0010851500
   0.0000008100    0.0000021000    0.0010805500
   0.0002268600    0.0000262300    0.0011887400
  -0.0009404500    0.0000032400    0.0012128500
   0.0057139600   -0.0031467400   -0.0065881000
   0.0059642200    0.0033348500    0.0092895600
  -0.0000039000   -0.0000000200   -0.0011398000
   0.0000035200   -0.0000000300   -0.0011398500
   0.0000000100   -0.0000022900   -0.0011409700
   0.0000000000    0.0000022200   -0.0011385700
  -0.0000000600    0.0000009000   -0.0008011400
  -0.0000000700   -0.0000006700   -0.0008238000
   0.0000012900    0.0000001100   -0.0008124800
  -0.0000037100    0.0000001000   -0.0008125000
  -0.0000050300   -0.0000109400   -0.0008982800
  -0.0000049900    0.0000110900   -0.0008068000
  -0.0000240700   -0.0000002800   -0.0008533700
  -0.0002370900   -0.0000002700   -0.0008516600
  -0.0000269900   -0.0000005000    0.0007165200
  -0.0000816300   -0.0000003000    0.0007162700
   0.0000188400    0.0000580400    0.0009695800
   0.0000191300   -0.0000581200    0.0004635500
  -0.0000039800   -0.0000975300   -0.0005610700
  -0.0000041900    0.0000981600   -0.0005658300
  -0.0001735700    0.0000003400   -0.0005632600
   0.0002030100    0.0000002300   -0.0005636200

5    
  0.0000000000000000   0.0000000000000000   0.0100000000000000
   0.0000000000    0.0000000000    0.0008899700
   0.0000000000   -0.0001931300    0.0010993500
   0.0001672600    0.0000965700    0.0010993500
  -0.0001672600    0.0000965700    0.0010993500
   0.0000000000    0.0000000000   -0.0328022200
   0.0000000000   -0.0047190700   -0.0091876400
   0.0040868300    0.0023595300   -0.0091876400
  -0.0040868300    0.0023595300   -0.0091876400
   0.0000000000   -0.0000030000    0.0002576900
   0.0000000000    0.0000000000    0.0002605900
  -0.0000026000    0.0000015000    0.0002576900
   0.0000026000    0.0000015000    0.0002576900
   0.0000041200   -0.0000023800    0.0003014800
  -0.0000041200   -0.0000023800    0.0003014800
   0.0000000000    0.0000047500    0.0003014800
   0.0000000000    0.0000000000    0.0003043900
   0.0000000000    0.0000716900    0.0003501100
   0.0000000000    0.0000000000    0.0002115200
   0.0000620800   -0.0000358400    0.0003501100
  -0.0000620800   -0.0000358400    0.0003501100
   0.0000000000    0.0000000500    0.0003652000
   0.0000000000    0.0000000000    0.0003619700
   0.0000000500   -0.0000000300    0.0003652000
  -0.0000000500   -0.0000000300    0.0003652000
   0.0000000000    0.0000000000    0.0001603100
   0.0000000000    0.0000007900    0.0001529800
  -0.0000006800   -0.0000004000    0.0001529800
   0.0000006800   -0.0000004000    0.0001529800
   0.0000000000   -0.0001078200    0.0007564600
   0.0000000000    0.0000000000    0.0007813400
  -0.0000933800    0.0000539100    0.0007564600
   0.0000933800    0.0000539100    0.0007564600
   0.0000001200   -0.0000000700   -0.0013513900
  -0.0000001200   -0.0000000700   -0.0013513900
   0.0000000000    0.0000001400   -0.0013513900
   0.0000000000    0.0000000000   -0.0013496700
   0.0000000000    0.0000000000    0.0005411500
   0.0000000000    0.0000001000    0.0005407100
  -0.0000000900   -0.0000000500    0.0005407100
   0.0000000900   -0.0000000500    0.0005407100
  -0.0059582100    0.0034399800    0.0082080500
   0.0059582100    0.0034399800    0.0082080500
   0.0000000000   -0.0068799500    0.0082080500
   0.0000000000    0.0000000000    0.0021857000
   0.0000000000    0.0000000000    0.0008689600
   0.0000000000   -0.0000021100    0.0008743600
   0.0000018200    0.0000010500    0.0008743600
  -0.0000018200    0.0000010500    0.0008743600
   0.0000000000   -0.0072259900    0.0102063100
   0.0000000000    0.0000000000    0.0040741100
  -0.0062578900    0.0036130000    0.0102063100
   0.0062578900    0.0036130000    0.0102063100
   0.0000000000    0.0000014100   -0.0013458600
   0.0000000000    0.0000000000   -0.0013478600
   0.0000012200   -0.0000007000   -0.0013458600
  -0.0000012200   -0.0000007000   -0.0013458600
   0.0000000400   -0.0000000200   -0.0010230200
  -0.0000000400   -0.0000000200   -0.0010230200
   0.0000000000    0.0000000500   -0.0010230200
   0.0000000000    0.0000000000   -0.0010132400
   0.0000013900   -0.0000008000   -0.0009200400
  -0.0000013900   -0.0000008000   -0.0009200400
   0.0000000000    0.0000016000   -0.0009200400
   0.0000000000    0.0000000000   -0.0012507700
   0.0000000000    0.0000000000    0.0005039100
   0.0000000000    0.0000128000    0.0006186200
  -0.0000110800   -0.0000064000    0.0006186200
   0.0000110800   -0.0000064000    0.0006186200
   0.0000694600   -0.0000401000   -0.0007603600
  -0.0000694600   -0.0000401000   -0.0007603600
   0.0000000000    0.0000802000   -0.0007603600
   0.0000000000    0.0000000000   -0.0008091600

5    
  0.0000000000000000   0.0000000000000000  -0.0100000000000000
   0.0000000000    0.0000000000    0.0003391400
   0.0000000000    0.0001955100    0.0001250600
  -0.0001693200   -0.0000977500    0.0001250600
   0.0001693200   -0.0000977500    0.0001250600
   0.0000000000    0.0000000000    0.0326667600
   0.0000000000    0.0047186500    0.0090206900
  -0.0040864700   -0.0023593300    0.0090206900
   0.0040864700   -0.0023593300    0.0090206900
   0.0000000000    0.0000030500   -0.0005764100
   0.0000000000    0.0000000000   -0.0005794100
   0.0000026400   -0.0000015300   -0.0005764100
  -0.0000026400   -0.0000015300   -0.0005764100
  -0.0000040700    0.0000023500   -0.0005297500
   0.0000040700    0.0000023500   -0.0005297500
   0.0000000000   -0.0000047000   -0.0005297500
   0.0000000000    0.0000000000   -0.0005326400
   0.0000000000   -0.0000741600   -0.0005814100
   0.0000000000    0.0000000000   -0.0004417100
  -0.0000642300    0.0000370800   -0.0005814100
   0.0000642300    0.0000370800   -0.0005814100
   0.0000000000   -0.0000000600   -0.0004677300
   0.0000000000    0.0000000000   -0.0004644400
  -0.0000000500    0.0000000300   -0.0004677300
   0.0000000500    0.0000000300   -0.0004677300
   0.0000000000    0.0000000000    0.0005701600
   0.0000000000   -0.0000008400    0.0005778000
   0.0000007200    0.0000004200    0.0005778000
  -0.0000007200    0.0000004200    0.0005778000
   0.0000000000    0.0001083800    0.0011901400
   0.0000000000    0.0000000000    0.0011639700
   0.0000938600   -0.0000541900    0.0011901400
  -0.0000938600   -0.0000541900    0.0011901400
  -0.0000001500    0.0000000900   -0.0009379000
   0.0000001500    0.0000000900   -0.0009379000
   0.0000000000   -0.0000001800   -0.0009379000
   0.0000000000    0.0000000000   -0.0009396100
   0.0000000000    0.0000000000    0.0009642300
   0.0000000000   -0.0000001100    0.0009645000
   0.0000000900    0.0000000500    0.0009645000
  -0.0000000900    0.0000000500    0.0009645000
   0.0061564600   -0.0035544400   -0.0096594700
  -0.0061564600   -0.0035544400   -0.0096594700
   0.0000000000    0.0071088700   -0.0096594700
   0.0000000000    0.0000000000   -0.0035434700
   0.0000000000    0.0000000000    0.0012984600
   0.0000000000    0.0000021400    0.0012931900
  -0.0000018500   -0.0000010700    0.0012931900
   0.0000018500   -0.0000010700    0.0012931900
   0.0000000000    0.0069969300   -0.0076886700
   0.0000000000    0.0000000000   -0.0016498800
   0.0060595200   -0.0034984700   -0.0076886700
  -0.0060595200   -0.0034984700   -0.0076886700
   0.0000000000   -0.0000014000   -0.0009364000
   0.0000000000    0.0000000000   -0.0009345600
  -0.0000012100    0.0000007000   -0.0009364000
   0.0000012100    0.0000007000   -0.0009364000
   0.0000000000    0.0000000000   -0.0006048700
   0.0000000000    0.0000000000   -0.0006048700
   0.0000000000    0.0000000000   -0.0006048700
   0.0000000000    0.0000000000   -0.0006147500
  -0.0000019000    0.0000011000   -0.0007879400
   0.0000019000    0.0000011000   -0.0007879400
   0.0000000000   -0.0000021900   -0.0007879400
   0.0000000000    0.0000000000   -0.0004524500
   0.0000000000    0.0000000000    0.0009302400
   0.0000000000   -0.0000122300    0.0008122200
   0.0000105900    0.0000061200    0.0008122200
  -0.0000105900    0.0000061200    0.0008122200
  -0.0000699800    0.0000404000   -0.0003667400
   0.0000699800    0.0000404000   -0.0003667400
   0.0000000000   -0.0000808100   -0.0003667400
   0.0000000000    0.0000000000   -0.0003190200

9    
  0.0100000000000000   0.0000000000000000   0.0000000000000000
  -0.0002765600    0.0000000300    0.0006125600
   0.0002575800   -0.0000001300    0.0006123400
   0.0000253600   -0.0001742000    0.0008487400
   0.0000250800    0.0001742700    0.0003757700
   0.0000068800    0.0000000000   -0.0000824700
  -0.0000103300   -0.0000000200   -0.0000824400
  -0.0000014100    0.0000047900   -0.0000850400
  -0.0000014100   -0.0000047800   -0.0000798600
  -0.0336908800    0.0000002300   -0.0001381300
   0.0114423100    0.0000010300   -0.0001594000
   0.0003789500   -0.0063867900   -0.0042461700
   0.0003787800    0.0063859000    0.0039284100
  -0.0000014700    0.0000029700   -0.0001157600
  -0.0000014000   -0.0000028400   -0.0001151500
   0.0000027700    0.0000000300   -0.0001154500
  -0.0000064800    0.0000000700   -0.0001154900
   0.0000035700    0.0000000100   -0.0001153700
  -0.0000008000    0.0000000200   -0.0001154800
  -0.0000009800   -0.0000001100   -0.0001154100
  -0.0000009900    0.0000001000   -0.0001155000
  -0.0000848200    0.0000004000   -0.0000514300
   0.0000841400   -0.0000005300   -0.0000521800
   0.0000481600   -0.0000211900   -0.0002196500
   0.0000466500    0.0000212400    0.0001165400
  -0.0000010600    0.0000000600    0.0003644400
  -0.0000017100    0.0000000500    0.0003644200
  -0.0000012300    0.0000001800    0.0003618000
  -0.0000012700   -0.0000000400    0.0003669700
  -0.0000278400    0.0000000700    0.0009726400
  -0.0000819900   -0.0000000600    0.0009724100
   0.0000178500    0.0000572300    0.0007211800
   0.0000176100   -0.0000579100    0.0012241900
  -0.0000061300    0.0000111200   -0.0011898500
  -0.0000060500   -0.0000113800   -0.0010982500
  -0.0002389700    0.0000002400   -0.0011430700
  -0.0000255600    0.0000002600   -0.0011448300
   0.0001430700   -0.0000003200    0.0007514500
  -0.0001120700    0.0000000700    0.0007512000
  -0.0000125600    0.0000895300    0.0008126600
  -0.0000119200   -0.0000898000    0.0006901300
  -0.0000008000   -0.0000013200   -0.0006818500
  -0.0000008000    0.0000011900   -0.0006770300
  -0.0000034200   -0.0000000800   -0.0006794400
   0.0000013800   -0.0000000700   -0.0006794500
   0.0002275700   -0.0000260900    0.0010592000
  -0.0009405400   -0.0000031100    0.0010833400
   0.0059615600   -0.0033327600    0.0091559800
   0.0057113600    0.0031449700   -0.0067136700
   0.0000015300    0.0000001800    0.0012118600
  -0.0000031000    0.0000001700    0.0012118600
  -0.0000009800    0.0000014000    0.0012228300
  -0.0000009700   -0.0000010600    0.0012009400
  -0.0000021100   -0.0000000100   -0.0011399500
   0.0000006000   -0.0000000200   -0.0011400400
  -0.0000006000   -0.0000007300   -0.0011445700
  -0.0000006100    0.0000006600   -0.0011353100
   0.0058675800    0.0032864900   -0.0088673600
   0.0056174600   -0.0030983400    0.0069650900
  -0.0009395500    0.0000032800   -0.0008136300
   0.0002140900    0.0000260900   -0.0007894600
  -0.0000042000    0.0000971900   -0.0008498700
  -0.0000044300   -0.0000974500   -0.0008549500
   0.0002013800   -0.0000000300   -0.0008525800
  -0.0001728900   -0.0000001500   -0.0008522600
  -0.0000000500   -0.0000003600    0.0007158600
   0.0000001800   -0.0000003500    0.0007158400
  -0.0000003400   -0.0000002100    0.0007154400
  -0.0000002900   -0.0000005100    0.0007162400
  -0.0000006600    0.0000002300   -0.0005635300
  -0.0000006400    0.0000003800   -0.0005637100
  -0.0000000200    0.0000003100   -0.0005636200
  -0.0000005100    0.0000003100   -0.0005636500

9    
  0.0000000000000000   0.0000000000000000   0.0100000000000000
   0.0000000000   -0.0000712600    0.0010778500
   0.0000000000    0.0000000000    0.0009400000
  -0.0000617100    0.0000356300    0.0010778500
   0.0000617100    0.0000356300    0.0010778500
   0.0000000000    0.0000045900    0.0003346400
   0.0000000000    0.0000000000    0.0003376200
   0.0000039800   -0.0000023000    0.0003346400
  -0.0000039800   -0.0000023000    0.0003346400
   0.0000000000    0.0000000000   -0.0329153400
   0.0000000000    0.0047197300   -0.0092648000
  -0.0040874000   -0.0023598600   -0.0092648000
   0.0040874000   -0.0023598600   -0.0092648000
   0.0000044000    0.0000025400    0.0003035300
  -0.0000044000    0.0000025400    0.0003035300
   0.0000000000    0.0000000000    0.0002996000
   0.0000000000   -0.0000050800    0.0003035300
   0.0000000000    0.0000000000    0.0003054500
   0.0000000000    0.0000000500    0.0003060900
  -0.0000000400   -0.0000000300    0.0003060900
   0.0000000400   -0.0000000300    0.0003060900
   0.0000000000    0.0000000000    0.0002257400
   0.0000000000    0.0001928600    0.0004335100
  -0.0001670200   -0.0000964300    0.0004335100
   0.0001670200   -0.0000964300    0.0004335100
   0.0000000000   -0.0000018500    0.0001540200
   0.0000000000    0.0000000000    0.0001566700
  -0.0000016000    0.0000009200    0.0001540200
   0.0000016000    0.0000009200    0.0001540200
   0.0000000000    0.0000000000    0.0007606200
   0.0000000000   -0.0000128400    0.0008744000
   0.0000111200    0.0000064200    0.0008744000
  -0.0000111200    0.0000064200    0.0008744000
   0.0000021100    0.0000012200   -0.0012102100
  -0.0000021100    0.0000012200   -0.0012102100
   0.0000000000    0.0000000000   -0.0015427500
   0.0000000000   -0.0000024400   -0.0012102100
   0.0000000000    0.0001078400    0.0005337100
   0.0000000000    0.0000000000    0.0005589100
   0.0000933900   -0.0000539200    0.0005337100
  -0.0000933900   -0.0000539200    0.0005337100
  -0.0000011500   -0.0000006600   -0.0008873900
   0.0000011500   -0.0000006600   -0.0008873900
   0.0000000000    0.0000000000   -0.0008893700
   0.0000000000    0.0000013300   -0.0008873900
   0.0000000000    0.0072248900    0.0100761200
   0.0000000000    0.0000000000    0.0039458700
   0.0062569400   -0.0036124500    0.0100761200
  -0.0062569400   -0.0036124500    0.0100761200
   0.0000000000    0.0000000000    0.0010087300
   0.0000000000   -0.0000005200    0.0010013400
   0.0000004500    0.0000002600    0.0010013400
  -0.0000004500    0.0000002600    0.0010013400
   0.0000000000    0.0000000000   -0.0013542300
   0.0000000000    0.0000007500   -0.0013428800
  -0.0000006500   -0.0000003700   -0.0013428800
   0.0000006500   -0.0000003700   -0.0013428800
  -0.0059565200   -0.0034390000    0.0080764900
   0.0059565200   -0.0034390000    0.0080764900
   0.0000000000    0.0000000000    0.0020538000
   0.0000000000    0.0068779900    0.0080764900
   0.0000690100    0.0000398400   -0.0010511000
  -0.0000690100    0.0000398400   -0.0010511000
   0.0000000000    0.0000000000   -0.0010995600
   0.0000000000   -0.0000796900   -0.0010511000
   0.0000000000   -0.0000001600    0.0005089100
   0.0000000000    0.0000000000    0.0005110300
  -0.0000001400    0.0000000800    0.0005089100
   0.0000001400    0.0000000800    0.0005089100
   0.0000001700    0.0000001000   -0.0007692900
  -0.0000001700    0.0000001000   -0.0007692900
   0.0000000000    0.0000000000   -0.0007676100
   0.0000000000   -0.0000002000   -0.0007692900

9    
  0.0000000000000000   0.0000000000000000  -0.0100000000000000
   0.0000000000    0.0000737100    0.0001479300
   0.0000000000    0.0000000000    0.0002868800
   0.0000638400   -0.0000368600    0.0001479300
  -0.0000638400   -0.0000368600    0.0001479300
   0.0000000000   -0.0000047000   -0.0004980400
   0.0000000000    0.0000000000   -0.0005010300
  -0.0000040700    0.0000023500   -0.0004980400
   0.0000040700    0.0000023500   -0.0004980400
   0.0000000000    0.0000000000    0.0325433400
   0.0000000000   -0.0047195700    0.0089485900
   0.0040872600    0.0023597800    0.0089485900
  -0.0040872600    0.0023597800    0.0089485900
  -0.0000044500   -0.0000025700   -0.0005331200
   0.0000044500   -0.0000025700   -0.0005331200
   0.0000000000    0.0000000000   -0.0005291400
   0.0000000000    0.0000051400   -0.0005331200
   0.0000000000    0.0000000000   -0.0005327700
   0.0000000000   -0.0000000200   -0.0005358400
   0.0000000200    0.0000000100   -0.0005358400
  -0.0000000200    0.0000000100   -0.0005358400
   0.0000000000    0.0000000000   -0.0003292800
   0.0000000000   -0.0001954400   -0.0005360100
   0.0001692600    0.0000977200   -0.0005360100
  -0.0001692600    0.0000977200   -0.0005360100
   0.0000000000    0.0000019100    0.0005752000
   0.0000000000    0.0000000000    0.0005725300
   0.0000016600   -0.0000009600    0.0005752000
  -0.0000016600   -0.0000009600    0.0005752000
   0.0000000000    0.0000000000    0.0011867500
   0.0000000000    0.0000123600    0.0010691900
  -0.0000107100   -0.0000061800    0.0010691900
   0.0000107100   -0.0000061800    0.0010691900
  -0.0000025500   -0.0000014800   -0.0010758300
   0.0000025500   -0.0000014800   -0.0010758300
   0.0000000000    0.0000000000   -0.0007385600