phonopy:
  version: "2.21.2"
  frequency_unit_conversion_factor: 15.633302
  symmetry_tolerance: 1.00000e-05
  configuration:
    force_constants: "WRITE"
    dim: "2 0 0 0 2 0 0 0 1"
    full_force_constants: ".TRUE."

physical_unit:
  atomic_mass: "AMU"
  length: "angstrom"
  force_constants: "eV/angstrom^2"

space_group:
  type: "P3m1"
  number: 156
  Hall_symbol: "P 3 -2\""

supercell_matrix:
- [   2,   0,   0 ]
- [   0,   2,   0 ]
- [   0,   0,   1 ]

primitive_cell:
  lattice:
  - [     4.221976450000000,     0.000000000000000,     0.000000000000000 ] # a
  - [    -2.110988230000000,     3.656338860000000,     0.000000000000000 ] # b
  - [     0.000000000000000,     0.000000000000000,    41.103660210000001 ] # c
  points:
  - symbol: Cd # 1
    coordinates: [  0.333333330000000,  0.666666670000000,  0.541605360000000 ]
    mass: 112.411000
  - symbol: Cd # 2
    coordinates: [  0.333333330000000,  0.666666670000000,  0.374960850000000 ]
    mass: 112.411000
  - symbol: Cd # 3
    coordinates: [  0.000000000000000,  0.000000000000000,  0.708351660000000 ]
    mass: 112.411000
  - symbol: Cd # 4
    coordinates: [  0.666666670000000,  0.333333330000000,  0.041702240000000 ]
    mass: 112.411000
  - symbol: Cd # 5
    coordinates: [  0.000000000000000,  0.000000000000000,  0.208355310000000 ]
    mass: 112.411000
  - symbol: Cd # 6
    coordinates: [  0.000000000000000,  0.000000000000000,  0.875025400000000 ]
    mass: 112.411000
  - symbol: I  # 7
    coordinates: [  0.333333330000000,  0.666666670000000,  0.083185710000000 ]
    mass: 126.904470
  - symbol: I  # 8
    coordinates: [  0.000000000000000,  0.000000000000000,  0.583087370000000 ]
    mass: 126.904470
  - symbol: I  # 9
    coordinates: [  0.666666670000000,  0.333333330000000,  0.833552950000000 ]
    mass: 126.904470
  - symbol: I  # 10
    coordinates: [  0.333333330000000,  0.666666670000000,  0.916506240000000 ]
    mass: 126.904470
  - symbol: I  # 11
    coordinates: [  0.666666670000000,  0.333333330000000,  0.333480350000000 ]
    mass: 126.904470
  - symbol: I  # 12
    coordinates: [  0.333333330000000,  0.666666670000000,  0.749822940000000 ]
    mass: 126.904470
  - symbol: I  # 13
    coordinates: [  0.000000000000000,  0.000000000000000,  0.416429250000000 ]
    mass: 126.904470
  - symbol: I  # 14
    coordinates: [  0.000000000000000,  0.000000000000000,  0.000227160000000 ]
    mass: 126.904470
  - symbol: I  # 15
    coordinates: [  0.666666670000000,  0.333333330000000,  0.666869290000000 ]
    mass: 126.904470
  - symbol: I  # 16
    coordinates: [  0.666666670000000,  0.333333330000000,  0.500129640000000 ]
    mass: 126.904470
  - symbol: I  # 17
    coordinates: [  0.333333330000000,  0.666666670000000,  0.249834210000000 ]
    mass: 126.904470
  - symbol: I  # 18
    coordinates: [  0.666666670000000,  0.333333330000000,  0.166874070000000 ]
    mass: 126.904470
  reciprocal_lattice: # without 2pi
  - [     0.236855892457666,     0.136748813588979,     0.000000000000000 ] # a*
  - [     0.000000000000000,     0.273497626530162,     0.000000000000000 ] # b*
  - [     0.000000000000000,     0.000000000000000,     0.024328733618636 ] # c*

unit_cell:
  lattice:
  - [     4.221976450000000,     0.000000000000000,     0.000000000000000 ] # a
  - [    -2.110988230000000,     3.656338860000000,     0.000000000000000 ] # b
  - [     0.000000000000000,     0.000000000000000,    41.103660210000001 ] # c
  points:
  - symbol: Cd # 1
    coordinates: [  0.333333330000000,  0.666666670000000,  0.541605360000000 ]
    mass: 112.411000
    reduced_to: 1
  - symbol: Cd # 2
    coordinates: [  0.333333330000000,  0.666666670000000,  0.374960850000000 ]
    mass: 112.411000
    reduced_to: 2
  - symbol: Cd # 3
    coordinates: [  0.000000000000000,  0.000000000000000,  0.708351660000000 ]
    mass: 112.411000
    reduced_to: 3
  - symbol: Cd # 4
    coordinates: [  0.666666670000000,  0.333333330000000,  0.041702240000000 ]
    mass: 112.411000
    reduced_to: 4
  - symbol: Cd # 5
    coordinates: [  0.000000000000000,  0.000000000000000,  0.208355310000000 ]
    mass: 112.411000
    reduced_to: 5
  - symbol: Cd # 6
    coordinates: [  0.000000000000000,  0.000000000000000,  0.875025400000000 ]
    mass: 112.411000
    reduced_to: 6
  - symbol: I  # 7
    coordinates: [  0.333333330000000,  0.666666670000000,  0.083185710000000 ]
    mass: 126.904470
    reduced_to: 7
  - symbol: I  # 8
    coordinates: [  0.000000000000000,  0.000000000000000,  0.583087370000000 ]
    mass: 126.904470
    reduced_to: 8
  - symbol: I  # 9
    coordinates: [  0.666666670000000,  0.333333330000000,  0.833552950000000 ]
    mass: 126.904470
    reduced_to: 9
  - symbol: I  # 10
    coordinates: [  0.333333330000000,  0.666666670000000,  0.916506240000000 ]
    mass: 126.904470
    reduced_to: 10
  - symbol: I  # 11
    coordinates: [  0.666666670000000,  0.333333330000000,  0.333480350000000 ]
    mass: 126.904470
    reduced_to: 11
  - symbol: I  # 12
    coordinates: [  0.333333330000000,  0.666666670000000,  0.749822940000000 ]
    mass: 126.904470
    reduced_to: 12
  - symbol: I  # 13
    coordinates: [  0.000000000000000,  0.000000000000000,  0.416429250000000 ]
    mass: 126.904470
    reduced_to: 13
  - symbol: I  # 14
    coordinates: [  0.000000000000000,  0.000000000000000,  0.000227160000000 ]
    mass: 126.904470
    reduced_to: 14
  - symbol: I  # 15
    coordinates: [  0.666666670000000,  0.333333330000000,  0.666869290000000 ]
    mass: 126.904470
    reduced_to: 15
  - symbol: I  # 16
    coordinates: [  0.666666670000000,  0.333333330000000,  0.500129640000000 ]
    mass: 126.904470
    reduced_to: 16
  - symbol: I  # 17
    coordinates: [  0.333333330000000,  0.666666670000000,  0.249834210000000 ]
    mass: 126.904470
    reduced_to: 17
  - symbol: I  # 18
    coordinates: [  0.666666670000000,  0.333333330000000,  0.166874070000000 ]
    mass: 126.904470
    reduced_to: 18

supercell:
  lattice:
  - [     8.443952899999999,     0.000000000000000,     0.000000000000000 ] # a
  - [    -4.221976460000000,     7.312677720000000,     0.000000000000000 ] # b
  - [     0.000000000000000,     0.000000000000000,    41.103660210000001 ] # c
  points:
  - symbol: Cd # 1
    coordinates: [  0.166666665000000,  0.333333335000000,  0.541605360000000 ]
    mass: 112.411000
    reduced_to: 1
  - symbol: Cd # 2
    coordinates: [  0.666666665000000,  0.333333335000000,  0.541605360000000 ]
    mass: 112.411000
    reduced_to: 1
  - symbol: Cd # 3
    coordinates: [  0.166666665000000,  0.833333335000000,  0.541605360000000 ]
    mass: 112.411000
    reduced_to: 1
  - symbol: Cd # 4
    coordinates: [  0.666666665000000,  0.833333335000000,  0.541605360000000 ]
    mass: 112.411000
    reduced_to: 1
  - symbol: Cd # 5
    coordinates: [  0.166666665000000,  0.333333335000000,  0.374960850000000 ]
    mass: 112.411000
    reduced_to: 5
  - symbol: Cd # 6
    coordinates: [  0.666666665000000,  0.333333335000000,  0.374960850000000 ]
    mass: 112.411000
    reduced_to: 5
  - symbol: Cd # 7
    coordinates: [  0.166666665000000,  0.833333335000000,  0.374960850000000 ]
    mass: 112.411000
    reduced_to: 5
  - symbol: Cd # 8
    coordinates: [  0.666666665000000,  0.833333335000000,  0.374960850000000 ]
    mass: 112.411000
    reduced_to: 5
  - symbol: Cd # 9
    coordinates: [  0.000000000000000,  0.000000000000000,  0.708351660000000 ]
    mass: 112.411000
    reduced_to: 9
  - symbol: Cd # 10
    coordinates: [  0.500000000000000,  0.000000000000000,  0.708351660000000 ]
    mass: 112.411000
    reduced_to: 9
  - symbol: Cd # 11
    coordinates: [  0.000000000000000,  0.500000000000000,  0.708351660000000 ]
    mass: 112.411000
    reduced_to: 9
  - symbol: Cd # 12
    coordinates: [  0.500000000000000,  0.500000000000000,  0.708351660000000 ]
    mass: 112.411000
    reduced_to: 9
  - symbol: Cd # 13
    coordinates: [  0.333333335000000,  0.166666665000000,  0.041702240000000 ]
    mass: 112.411000
    reduced_to: 13
  - symbol: Cd # 14
    coordinates: [  0.833333335000000,  0.166666665000000,  0.041702240000000 ]
    mass: 112.411000
    reduced_to: 13
  - symbol: Cd # 15
    coordinates: [  0.333333335000000,  0.666666665000000,  0.041702240000000 ]
    mass: 112.411000
    reduced_to: 13
  - symbol: Cd # 16
    coordinates: [  0.833333335000000,  0.666666665000000,  0.041702240000000 ]
    mass: 112.411000
    reduced_to: 13
  - symbol: Cd # 17
    coordinates: [  0.000000000000000,  0.000000000000000,  0.208355310000000 ]
    mass: 112.411000
    reduced_to: 17
  - symbol: Cd # 18
    coordinates: [  0.500000000000000,  0.000000000000000,  0.208355310000000 ]
    mass: 112.411000
    reduced_to: 17
  - symbol: Cd # 19
    coordinates: [  0.000000000000000,  0.500000000000000,  0.208355310000000 ]
    mass: 112.411000
    reduced_to: 17
  - symbol: Cd # 20
    coordinates: [  0.500000000000000,  0.500000000000000,  0.208355310000000 ]
    mass: 112.411000
    reduced_to: 17
  - symbol: Cd # 21
    coordinates: [  0.000000000000000,  0.000000000000000,  0.875025400000000 ]
    mass: 112.411000
    reduced_to: 21
  - symbol: Cd # 22
    coordinates: [  0.500000000000000,  0.000000000000000,  0.875025400000000 ]
    mass: 112.411000
    reduced_to: 21
  - symbol: Cd # 23
    coordinates: [  0.000000000000000,  0.500000000000000,  0.875025400000000 ]
    mass: 112.411000
    reduced_to: 21
  - symbol: Cd # 24
    coordinates: [  0.500000000000000,  0.500000000000000,  0.875025400000000 ]
    mass: 112.411000
    reduced_to: 21
  - symbol: I  # 25
    coordinates: [  0.166666665000000,  0.333333335000000,  0.083185710000000 ]
    mass: 126.904470
    reduced_to: 25
  - symbol: I  # 26
    coordinates: [  0.666666665000000,  0.333333335000000,  0.083185710000000 ]
    mass: 126.904470
    reduced_to: 25
  - symbol: I  # 27
    coordinates: [  0.166666665000000,  0.833333335000000,  0.083185710000000 ]
    mass: 126.904470
    reduced_to: 25
  - symbol: I  # 28
    coordinates: [  0.666666665000000,  0.833333335000000,  0.083185710000000 ]
    mass: 126.904470
    reduced_to: 25
  - symbol: I  # 29
    coordinates: [  0.000000000000000,  0.000000000000000,  0.583087370000000 ]
    mass: 126.904470
    reduced_to: 29
  - symbol: I  # 30
    coordinates: [  0.500000000000000,  0.000000000000000,  0.583087370000000 ]
    mass: 126.904470
    reduced_to: 29
  - symbol: I  # 31
    coordinates: [  0.000000000000000,  0.500000000000000,  0.583087370000000 ]
    mass: 126.904470
    reduced_to: 29
  - symbol: I  # 32
    coordinates: [  0.500000000000000,  0.500000000000000,  0.583087370000000 ]
    mass: 126.904470
    reduced_to: 29
  - symbol: I  # 33
    coordinates: [  0.333333335000000,  0.166666665000000,  0.833552950000000 ]
    mass: 126.904470
    reduced_to: 33
  - symbol: I  # 34
    coordinates: [  0.833333335000000,  0.166666665000000,  0.833552950000000 ]
    mass: 126.904470
    reduced_to: 33
  - symbol: I  # 35
    coordinates: [  0.333333335000000,  0.666666665000000,  0.833552950000000 ]
    mass: 126.904470
    reduced_to: 33
  - symbol: I  # 36
    coordinates: [  0.833333335000000,  0.666666665000000,  0.833552950000000 ]
    mass: 126.904470
    reduced_to: 33
  - symbol: I  # 37
    coordinates: [  0.166666665000000,  0.333333335000000,  0.916506240000000 ]
    mass: 126.904470
    reduced_to: 37
  - symbol: I  # 38
    coordinates: [  0.666666665000000,  0.333333335000000,  0.916506240000000 ]
    mass: 126.904470
    reduced_to: 37
  - symbol: I  # 39
    coordinates: [  0.166666665000000,  0.833333335000000,  0.916506240000000 ]
    mass: 126.904470
    reduced_to: 37
  - symbol: I  # 40
    coordinates: [  0.666666665000000,  0.833333335000000,  0.916506240000000 ]
    mass: 126.904470
    reduced_to: 37
  - symbol: I  # 41
    coordinates: [  0.333333335000000,  0.166666665000000,  0.333480350000000 ]
    mass: 126.904470
    reduced_to: 41
  - symbol: I  # 42
    coordinates: [  0.833333335000000,  0.166666665000000,  0.333480350000000 ]
    mass: 126.904470
    reduced_to: 41
  - symbol: I  # 43
    coordinates: [  0.333333335000000,  0.666666665000000,  0.333480350000000 ]
    mass: 126.904470
    reduced_to: 41
  - symbol: I  # 44
    coordinates: [  0.833333335000000,  0.666666665000000,  0.333480350000000 ]
    mass: 126.904470
    reduced_to: 41
  - symbol: I  # 45
    coordinates: [  0.166666665000000,  0.333333335000000,  0.749822940000000 ]
    mass: 126.904470
    reduced_to: 45
  - symbol: I  # 46
    coordinates: [  0.666666665000000,  0.333333335000000,  0.749822940000000 ]
    mass: 126.904470
    reduced_to: 45
  - symbol: I  # 47
    coordinates: [  0.166666665000000,  0.833333335000000,  0.749822940000000 ]
    mass: 126.904470
    reduced_to: 45
  - symbol: I  # 48
    coordinates: [  0.666666665000000,  0.833333335000000,  0.749822940000000 ]
    mass: 126.904470
    reduced_to: 45
  - symbol: I  # 49
    coordinates: [  0.000000000000000,  0.000000000000000,  0.416429250000000 ]
    mass: 126.904470
    reduced_to: 49
  - symbol: I  # 50
    coordinates: [  0.500000000000000,  0.000000000000000,  0.416429250000000 ]
    mass: 126.904470
    reduced_to: 49
  - symbol: I  # 51
    coordinates: [  0.000000000000000,  0.500000000000000,  0.416429250000000 ]
    mass: 126.904470
    reduced_to: 49
  - symbol: I  # 52
    coordinates: [  0.500000000000000,  0.500000000000000,  0.416429250000000 ]
    mass: 126.904470
    reduced_to: 49
  - symbol: I  # 53
    coordinates: [  0.000000000000000,  0.000000000000000,  0.000227160000000 ]
    mass: 126.904470
    reduced_to: 53
  - symbol: I  # 54
    coordinates: [  0.500000000000000,  0.000000000000000,  0.000227160000000 ]
    mass: 126.904470
    reduced_to: 53
  - symbol: I  # 55
    coordinates: [  0.000000000000000,  0.500000000000000,  0.000227160000000 ]
    mass: 126.904470
    reduced_to: 53
  - symbol: I  # 56
    coordinates: [  0.500000000000000,  0.500000000000000,  0.000227160000000 ]
    mass: 126.904470
    reduced_to: 53
  - symbol: I  # 57
    coordinates: [  0.333333335000000,  0.166666665000000,  0.666869290000000 ]
    mass: 126.904470
    reduced_to: 57
  - symbol: I  # 58
    coordinates: [  0.833333335000000,  0.166666665000000,  0.666869290000000 ]
    mass: 126.904470
    reduced_to: 57
  - symbol: I  # 59
    coordinates: [  0.333333335000000,  0.666666665000000,  0.666869290000000 ]
    mass: 126.904470
    reduced_to: 57
  - symbol: I  # 60
    coordinates: [  0.833333335000000,  0.666666665000000,  0.666869290000000 ]
    mass: 126.904470
    reduced_to: 57
  - symbol: I  # 61
    coordinates: [  0.333333335000000,  0.166666665000000,  0.500129640000000 ]
    mass: 126.904470
    reduced_to: 61
  - symbol: I  # 62
    coordinates: [  0.833333335000000,  0.166666665000000,  0.500129640000000 ]
    mass: 126.904470
    reduced_to: 61
  - symbol: I  # 63
    coordinates: [  0.333333335000000,  0.666666665000000,  0.500129640000000 ]
    mass: 126.904470
    reduced_to: 61
  - symbol: I  # 64
    coordinates: [  0.833333335000000,  0.666666665000000,  0.500129640000000 ]
    mass: 126.904470
    reduced_to: 61
  - symbol: I  # 65
    coordinates: [  0.166666665000000,  0.333333335000000,  0.249834210000000 ]
    mass: 126.904470
    reduced_to: 65
  - symbol: I  # 66
    coordinates: [  0.666666665000000,  0.333333335000000,  0.249834210000000 ]
    mass: 126.904470
    reduced_to: 65
  - symbol: I  # 67
    coordinates: [  0.166666665000000,  0.833333335000000,  0.249834210000000 ]
    mass: 126.904470
    reduced_to: 65
  - symbol: I  # 68
    coordinates: [  0.666666665000000,  0.833333335000000,  0.249834210000000 ]
    mass: 126.904470
    reduced_to: 65
  - symbol: I  # 69
    coordinates: [  0.333333335000000,  0.166666665000000,  0.166874070000000 ]
    mass: 126.904470
    reduced_to: 69
  - symbol: I  # 70
    coordinates: [  0.833333335000000,  0.166666665000000,  0.166874070000000 ]
    mass: 126.904470
    reduced_to: 69
  - symbol: I  # 71
    coordinates: [  0.333333335000000,  0.666666665000000,  0.166874070000000 ]
    mass: 126.904470
    reduced_to: 69
  - symbol: I  # 72
    coordinates: [  0.833333335000000,  0.666666665000000,  0.166874070000000 ]
    mass: 126.904470
    reduced_to: 69
