# epsilon and Z* of atoms 1 5 13 17 21 25
   2.86152074    0.00000000    0.00000000    0.00000000    2.86489127    0.00000000    0.00000000    0.00000000    2.87196284 
  -2.17913466    0.00000000   -0.10910900    0.00000000   -1.37264876    0.00000000   -0.12252973    0.00000000   -1.44391290 
  -1.51508219    0.24785306    0.23648776    0.27884936   -2.17319227   -0.55282454    0.22287107   -0.55747243   -1.58588421 
  -1.56782699    0.00000000    0.37313288    0.00000000   -1.27438952    0.00000000    0.33386761    0.00000000   -2.38213168 
   2.94438266    0.00000000   -0.04566310    0.00000000    3.27639459    0.00000000   -0.08861034    0.00000000    3.17878221 
   1.26923537    0.00000000    0.01568779    0.00000000    1.18393101    0.00000000   -0.01941073    0.00000000    1.16755996 
   2.56350798    0.00000000    0.00689698    0.00000000    2.53309722    0.00000000   -0.04740059    0.00000000    2.65147084 
