natom:  112
displacements:
- atom:    1
  displacement:
    [   0.0100000000000000,  0.0000000000000000,  0.0000000000000000 ]
- atom:    1
  displacement:
    [  -0.0100000000000000,  0.0000000000000000,  0.0000000000000000 ]
- atom:    1
  displacement:
    [   0.0000000000000000,  0.0100000000000000,  0.0000000000000000 ]
- atom:    1
  displacement:
    [   0.0000000000000000,  0.0000000000000000,  0.0100000000000000 ]
- atom:    1
  displacement:
    [   0.0000000000000000,  0.0000000000000000, -0.0100000000000000 ]
- atom:   17
  displacement:
    [   0.0100000000000000,  0.0000000000000000,  0.0000000000000000 ]
- atom:   17
  displacement:
    [  -0.0100000000000000,  0.0000000000000000,  0.0000000000000000 ]
- atom:   17
  displacement:
    [   0.0000000000000000,  0.0100000000000000,  0.0000000000000000 ]
- atom:   17
  displacement:
    [   0.0000000000000000, -0.0100000000000000,  0.0000000000000000 ]
- atom:   17
  displacement:
    [   0.0000000000000000,  0.0000000000000000,  0.0100000000000000 ]
- atom:   17
  displacement:
    [   0.0000000000000000,  0.0000000000000000, -0.0100000000000000 ]
- atom:   49
  displacement:
    [   0.0100000000000000,  0.0000000000000000,  0.0000000000000000 ]
- atom:   49
  displacement:
    [  -0.0100000000000000,  0.0000000000000000,  0.0000000000000000 ]
- atom:   49
  displacement:
    [   0.0000000000000000,  0.0100000000000000,  0.0000000000000000 ]
- atom:   49
  displacement:
    [   0.0000000000000000,  0.0000000000000000,  0.0100000000000000 ]
- atom:   49
  displacement:
    [   0.0000000000000000,  0.0000000000000000, -0.0100000000000000 ]
- atom:   65
  displacement:
    [   0.0100000000000000,  0.0000000000000000,  0.0000000000000000 ]
- atom:   65
  displacement:
    [  -0.0100000000000000,  0.0000000000000000,  0.0000000000000000 ]
- atom:   65
  displacement:
    [   0.0000000000000000,  0.0100000000000000,  0.0000000000000000 ]
- atom:   65
  displacement:
    [   0.0000000000000000,  0.0000000000000000,  0.0100000000000000 ]
- atom:   65
  displacement:
    [   0.0000000000000000,  0.0000000000000000, -0.0100000000000000 ]
- atom:   81
  displacement:
    [   0.0100000000000000,  0.0000000000000000,  0.0000000000000000 ]
- atom:   81
  displacement:
    [  -0.0100000000000000,  0.0000000000000000,  0.0000000000000000 ]
- atom:   81
  displacement:
    [   0.0000000000000000,  0.0100000000000000,  0.0000000000000000 ]
- atom:   81
  displacement:
    [   0.0000000000000000,  0.0000000000000000,  0.0100000000000000 ]
- atom:   81
  displacement:
    [   0.0000000000000000,  0.0000000000000000, -0.0100000000000000 ]
- atom:   97
  displacement:
    [   0.0100000000000000,  0.0000000000000000,  0.0000000000000000 ]
- atom:   97
  displacement:
    [  -0.0100000000000000,  0.0000000000000000,  0.0000000000000000 ]
- atom:   97
  displacement:
    [   0.0000000000000000,  0.0100000000000000,  0.0000000000000000 ]
- atom:   97
  displacement:
    [   0.0000000000000000,  0.0000000000000000,  0.0100000000000000 ]
- atom:   97
  displacement:
    [   0.0000000000000000,  0.0000000000000000, -0.0100000000000000 ]
lattice:
- [    14.7035567599999997,     0.0000000000000000,     0.0000000000000000 ] # a
- [     0.0000000000000000,    11.1035809800000003,     0.0000000000000000 ] # b
- [     0.0000000000000000,     0.0000000000000000,     9.6186513700000003 ] # c
atoms:
- symbol: O  # 1
  position: [  0.0083611850000000,  0.1250000000000000,  0.0748640200000000 ]
  mass: 15.999400
- symbol: O  # 2
  position: [  0.5083611850000000,  0.1250000000000000,  0.0748640200000000 ]
  mass: 15.999400
- symbol: O  # 3
  position: [  0.0083611850000000,  0.6250000000000000,  0.0748640200000000 ]
  mass: 15.999400
- symbol: O  # 4
  position: [  0.5083611850000000,  0.6250000000000000,  0.0748640200000000 ]
  mass: 15.999400
- symbol: O  # 5
  position: [  0.4916388150000000,  0.3750000000000000,  0.9251359800000000 ]
  mass: 15.999400
- symbol: O  # 6
  position: [  0.9916388150000000,  0.3750000000000000,  0.9251359800000000 ]
  mass: 15.999400
- symbol: O  # 7
  position: [  0.4916388150000000,  0.8750000000000000,  0.9251359800000000 ]
  mass: 15.999400
- symbol: O  # 8
  position: [  0.9916388150000000,  0.8750000000000000,  0.9251359800000000 ]
  mass: 15.999400
- symbol: O  # 9
  position: [  0.2583611850000000,  0.1250000000000000,  0.4251359800000000 ]
  mass: 15.999400
- symbol: O  # 10
  position: [  0.7583611850000000,  0.1250000000000000,  0.4251359800000000 ]
  mass: 15.999400
- symbol: O  # 11
  position: [  0.2583611850000000,  0.6250000000000000,  0.4251359800000000 ]
  mass: 15.999400
- symbol: O  # 12
  position: [  0.7583611850000000,  0.6250000000000000,  0.4251359800000000 ]
  mass: 15.999400
- symbol: O  # 13
  position: [  0.2416388150000000,  0.3750000000000000,  0.5748640200000000 ]
  mass: 15.999400
- symbol: O  # 14
  position: [  0.7416388150000000,  0.3750000000000000,  0.5748640200000000 ]
  mass: 15.999400
- symbol: O  # 15
  position: [  0.2416388150000000,  0.8750000000000000,  0.5748640200000000 ]
  mass: 15.999400
- symbol: O  # 16
  position: [  0.7416388150000000,  0.8750000000000000,  0.5748640200000000 ]
  mass: 15.999400
- symbol: O  # 17
  position: [  0.1044219150000000,  0.4898586000000000,  0.6613112100000000 ]
  mass: 15.999400
- symbol: O  # 18
  position: [  0.6044219150000000,  0.4898586000000000,  0.6613112100000000 ]
  mass: 15.999400
- symbol: O  # 19
  position: [  0.1044219150000000,  0.9898586000000000,  0.6613112100000000 ]
  mass: 15.999400
- symbol: O  # 20
  position: [  0.6044219150000000,  0.9898586000000000,  0.6613112100000000 ]
  mass: 15.999400
- symbol: O  # 21
  position: [  0.3955780850000000,  0.2398586000000000,  0.3386887900000000 ]
  mass: 15.999400
- symbol: O  # 22
  position: [  0.8955780850000000,  0.2398586000000000,  0.3386887900000000 ]
  mass: 15.999400
- symbol: O  # 23
  position: [  0.3955780850000000,  0.7398586000000000,  0.3386887900000000 ]
  mass: 15.999400
- symbol: O  # 24
  position: [  0.8955780850000000,  0.7398586000000000,  0.3386887900000000 ]
  mass: 15.999400
- symbol: O  # 25
  position: [  0.3544219150000000,  0.2601414000000000,  0.8386887900000000 ]
  mass: 15.999400
- symbol: O  # 26
  position: [  0.8544219150000000,  0.2601414000000000,  0.8386887900000000 ]
  mass: 15.999400
- symbol: O  # 27
  position: [  0.3544219150000000,  0.7601414000000000,  0.8386887900000000 ]
  mass: 15.999400
- symbol: O  # 28
  position: [  0.8544219150000000,  0.7601414000000000,  0.8386887900000000 ]
  mass: 15.999400
- symbol: O  # 29
  position: [  0.1455780850000000,  0.0101414000000000,  0.1613112100000000 ]
  mass: 15.999400
- symbol: O  # 30
  position: [  0.6455780850000000,  0.0101414000000000,  0.1613112100000000 ]
  mass: 15.999400
- symbol: O  # 31
  position: [  0.1455780850000000,  0.5101414000000000,  0.1613112100000000 ]
  mass: 15.999400
- symbol: O  # 32
  position: [  0.6455780850000000,  0.5101414000000000,  0.1613112100000000 ]
  mass: 15.999400
- symbol: O  # 33
  position: [  0.3955780850000000,  0.0101414000000000,  0.3386887900000000 ]
  mass: 15.999400
- symbol: O  # 34
  position: [  0.8955780850000000,  0.0101414000000000,  0.3386887900000000 ]
  mass: 15.999400
- symbol: O  # 35
  position: [  0.3955780850000000,  0.5101414000000000,  0.3386887900000000 ]
  mass: 15.999400
- symbol: O  # 36
  position: [  0.8955780850000000,  0.5101414000000000,  0.3386887900000000 ]
  mass: 15.999400
- symbol: O  # 37
  position: [  0.1044219150000000,  0.2601414000000000,  0.6613112100000000 ]
  mass: 15.999400
- symbol: O  # 38
  position: [  0.6044219150000000,  0.2601414000000000,  0.6613112100000000 ]
  mass: 15.999400
- symbol: O  # 39
  position: [  0.1044219150000000,  0.7601414000000000,  0.6613112100000000 ]
  mass: 15.999400
- symbol: O  # 40
  position: [  0.6044219150000000,  0.7601414000000000,  0.6613112100000000 ]
  mass: 15.999400
- symbol: O  # 41
  position: [  0.1455780850000000,  0.2398586000000000,  0.1613112100000000 ]
  mass: 15.999400
- symbol: O  # 42
  position: [  0.6455780850000000,  0.2398586000000000,  0.1613112100000000 ]
  mass: 15.999400
- symbol: O  # 43
  position: [  0.1455780850000000,  0.7398586000000000,  0.1613112100000000 ]
  mass: 15.999400
- symbol: O  # 44
  position: [  0.6455780850000000,  0.7398586000000000,  0.1613112100000000 ]
  mass: 15.999400
- symbol: O  # 45
  position: [  0.3544219150000000,  0.4898586000000000,  0.8386887900000000 ]
  mass: 15.999400
- symbol: O  # 46
  position: [  0.8544219150000000,  0.4898586000000000,  0.8386887900000000 ]
  mass: 15.999400
- symbol: O  # 47
  position: [  0.3544219150000000,  0.9898586000000000,  0.8386887900000000 ]
  mass: 15.999400
- symbol: O  # 48
  position: [  0.8544219150000000,  0.9898586000000000,  0.8386887900000000 ]
  mass: 15.999400
- symbol: O  # 49
  position: [  0.3465166450000000,  0.3750000000000000,  0.0672638100000000 ]
  mass: 15.999400
- symbol: O  # 50
  position: [  0.8465166450000000,  0.3750000000000000,  0.0672638100000000 ]
  mass: 15.999400
- symbol: O  # 51
  position: [  0.3465166450000000,  0.8750000000000000,  0.0672638100000000 ]
  mass: 15.999400
- symbol: O  # 52
  position: [  0.8465166450000000,  0.8750000000000000,  0.0672638100000000 ]
  mass: 15.999400
- symbol: O  # 53
  position: [  0.1534833550000000,  0.1250000000000000,  0.9327361900000000 ]
  mass: 15.999400
- symbol: O  # 54
  position: [  0.6534833550000000,  0.1250000000000000,  0.9327361900000000 ]
  mass: 15.999400
- symbol: O  # 55
  position: [  0.1534833550000000,  0.6250000000000000,  0.9327361900000000 ]
  mass: 15.999400
- symbol: O  # 56
  position: [  0.6534833550000000,  0.6250000000000000,  0.9327361900000000 ]
  mass: 15.999400
- symbol: O  # 57
  position: [  0.0965166450000000,  0.3750000000000000,  0.4327361900000000 ]
  mass: 15.999400
- symbol: O  # 58
  position: [  0.5965166450000000,  0.3750000000000000,  0.4327361900000000 ]
  mass: 15.999400
- symbol: O  # 59
  position: [  0.0965166450000000,  0.8750000000000000,  0.4327361900000000 ]
  mass: 15.999400
- symbol: O  # 60
  position: [  0.5965166450000000,  0.8750000000000000,  0.4327361900000000 ]
  mass: 15.999400
- symbol: O  # 61
  position: [  0.4034833550000000,  0.1250000000000000,  0.5672638100000000 ]
  mass: 15.999400
- symbol: O  # 62
  position: [  0.9034833550000000,  0.1250000000000000,  0.5672638100000000 ]
  mass: 15.999400
- symbol: O  # 63
  position: [  0.4034833550000000,  0.6250000000000000,  0.5672638100000000 ]
  mass: 15.999400
- symbol: O  # 64
  position: [  0.9034833550000000,  0.6250000000000000,  0.5672638100000000 ]
  mass: 15.999400
- symbol: P  # 65
  position: [  0.3634828300000000,  0.1250000000000000,  0.4169787600000000 ]
  mass: 30.973762
- symbol: P  # 66
  position: [  0.8634828299999999,  0.1250000000000000,  0.4169787600000000 ]
  mass: 30.973762
- symbol: P  # 67
  position: [  0.3634828300000000,  0.6250000000000000,  0.4169787600000000 ]
  mass: 30.973762
- symbol: P  # 68
  position: [  0.8634828299999999,  0.6250000000000000,  0.4169787600000000 ]
  mass: 30.973762
- symbol: P  # 69
  position: [  0.1365171700000000,  0.3750000000000000,  0.5830212400000000 ]
  mass: 30.973762
- symbol: P  # 70
  position: [  0.6365171700000000,  0.3750000000000000,  0.5830212400000000 ]
  mass: 30.973762
- symbol: P  # 71
  position: [  0.1365171700000000,  0.8750000000000000,  0.5830212400000000 ]
  mass: 30.973762
- symbol: P  # 72
  position: [  0.6365171700000000,  0.8750000000000000,  0.5830212400000000 ]
  mass: 30.973762
- symbol: P  # 73
  position: [  0.1134828300000000,  0.1250000000000000,  0.0830212400000000 ]
  mass: 30.973762
- symbol: P  # 74
  position: [  0.6134828300000000,  0.1250000000000000,  0.0830212400000000 ]
  mass: 30.973762
- symbol: P  # 75
  position: [  0.1134828300000000,  0.6250000000000000,  0.0830212400000000 ]
  mass: 30.973762
- symbol: P  # 76
  position: [  0.6134828300000000,  0.6250000000000000,  0.0830212400000000 ]
  mass: 30.973762
- symbol: P  # 77
  position: [  0.3865171700000000,  0.3750000000000000,  0.9169787600000000 ]
  mass: 30.973762
- symbol: P  # 78
  position: [  0.8865171700000001,  0.3750000000000000,  0.9169787600000000 ]
  mass: 30.973762
- symbol: P  # 79
  position: [  0.3865171700000000,  0.8750000000000000,  0.9169787600000000 ]
  mass: 30.973762
- symbol: P  # 80
  position: [  0.8865171700000001,  0.8750000000000000,  0.9169787600000000 ]
  mass: 30.973762
- symbol: K  # 81
  position: [  0.0779902700000000,  0.1250000000000000,  0.4155361400000000 ]
  mass: 39.098300
- symbol: K  # 82
  position: [  0.5779902700000000,  0.1250000000000000,  0.4155361400000000 ]
  mass: 39.098300
- symbol: K  # 83
  position: [  0.0779902700000000,  0.6250000000000000,  0.4155361400000000 ]
  mass: 39.098300
- symbol: K  # 84
  position: [  0.5779902700000000,  0.6250000000000000,  0.4155361400000000 ]
  mass: 39.098300
- symbol: K  # 85
  position: [  0.1720097300000000,  0.3750000000000000,  0.9155361400000001 ]
  mass: 39.098300
- symbol: K  # 86
  position: [  0.6720097300000000,  0.3750000000000000,  0.9155361400000001 ]
  mass: 39.098300
- symbol: K  # 87
  position: [  0.1720097300000000,  0.8750000000000000,  0.9155361400000001 ]
  mass: 39.098300
- symbol: K  # 88
  position: [  0.6720097300000000,  0.8750000000000000,  0.9155361400000001 ]
  mass: 39.098300
- symbol: K  # 89
  position: [  0.4220097300000000,  0.3750000000000000,  0.5844638599999999 ]
  mass: 39.098300
- symbol: K  # 90
  position: [  0.9220097300000001,  0.3750000000000000,  0.5844638599999999 ]
  mass: 39.098300
- symbol: K  # 91
  position: [  0.4220097300000000,  0.8750000000000000,  0.5844638599999999 ]
  mass: 39.098300
- symbol: K  # 92
  position: [  0.9220097300000001,  0.8750000000000000,  0.5844638599999999 ]
  mass: 39.098300
- symbol: K  # 93
  position: [  0.3279902700000000,  0.1250000000000000,  0.0844638600000000 ]
  mass: 39.098300
- symbol: K  # 94
  position: [  0.8279902699999999,  0.1250000000000000,  0.0844638600000000 ]
  mass: 39.098300
- symbol: K  # 95
  position: [  0.3279902700000000,  0.6250000000000000,  0.0844638600000000 ]
  mass: 39.098300
- symbol: K  # 96
  position: [  0.8279902699999999,  0.6250000000000000,  0.0844638600000000 ]
  mass: 39.098300
- symbol: Sr # 97
  position: [  0.0010087100000000,  0.3750000000000000,  0.1960820000000000 ]
  mass: 87.620000
- symbol: Sr # 98
  position: [  0.5010087100000000,  0.3750000000000000,  0.1960820000000000 ]
  mass: 87.620000
- symbol: Sr # 99
  position: [  0.0010087100000000,  0.8750000000000000,  0.1960820000000000 ]
  mass: 87.620000
- symbol: Sr # 100
  position: [  0.5010087100000000,  0.8750000000000000,  0.1960820000000000 ]
  mass: 87.620000
- symbol: Sr # 101
  position: [  0.2510087100000000,  0.3750000000000000,  0.3039180000000000 ]
  mass: 87.620000
- symbol: Sr # 102
  position: [  0.7510087100000000,  0.3750000000000000,  0.3039180000000000 ]
  mass: 87.620000
- symbol: Sr # 103
  position: [  0.2510087100000000,  0.8750000000000000,  0.3039180000000000 ]
  mass: 87.620000
- symbol: Sr # 104
  position: [  0.7510087100000000,  0.8750000000000000,  0.3039180000000000 ]
  mass: 87.620000
- symbol: Sr # 105
  position: [  0.2489912900000000,  0.1250000000000000,  0.6960820000000000 ]
  mass: 87.620000
- symbol: Sr # 106
  position: [  0.7489912900000000,  0.1250000000000000,  0.6960820000000000 ]
  mass: 87.620000
- symbol: Sr # 107
  position: [  0.2489912900000000,  0.6250000000000000,  0.6960820000000000 ]
  mass: 87.620000
- symbol: Sr # 108
  position: [  0.7489912900000000,  0.6250000000000000,  0.6960820000000000 ]
  mass: 87.620000
- symbol: Sr # 109
  position: [  0.4989912900000000,  0.1250000000000000,  0.8039180000000000 ]
  mass: 87.620000
- symbol: Sr # 110
  position: [  0.9989912900000000,  0.1250000000000000,  0.8039180000000000 ]
  mass: 87.620000
- symbol: Sr # 111
  position: [  0.4989912900000000,  0.6250000000000000,  0.8039180000000000 ]
  mass: 87.620000
- symbol: Sr # 112
  position: [  0.9989912900000000,  0.6250000000000000,  0.8039180000000000 ]
  mass: 87.620000