 112  112
1 1
    41.577098999999997    -0.000000000000000     1.736784000000000
     0.000000000000000     5.788462000000001     0.000000000000000
     1.734521000000000    -0.000000000000000     7.049922000000000
1 2
    -0.295680500000000    -0.000000000000000    -0.011991000000000
    -0.000000000000000     0.022080000000000    -0.000000000000000
    -0.012028500000000    -0.000000000000000     0.016394500000000
1 3
     0.261874500000000    -0.000000000000000     0.049247500000000
    -0.000000000000000    -0.220916000000000     0.000000000000000
     0.049234000000000    -0.000000000000000     0.092008000000000
1 4
    -0.151761000000000    -0.000000000000000    -0.012904000000000
    -0.000000000000000    -0.023424000000000     0.000000000000000
    -0.012946500000000    -0.000000000000000     0.010747500000000
1 5
    -0.207033000000000    -0.022090000000000    -0.001635000000000
    -0.022091000000000     0.002838000000000     0.017121000000000
    -0.001618500000000     0.017124500000000     0.030956500000000
1 6
     0.288960000000000     0.339185000000000    -0.145250000000000
     0.339217500000000    -0.571209000000000     0.414052000000000
    -0.145212000000000     0.414037500000000     0.042740500000000
1 7
    -0.207033000000000     0.022090000000000    -0.001635000000000
     0.022091000000000     0.002838000000000    -0.017121000000000
    -0.001618500000000    -0.017124500000000     0.030956500000000
1 8
     0.288960000000000    -0.339185000000000    -0.145250000000000
    -0.339217500000000    -0.571209000000000    -0.414052000000000
    -0.145212000000000    -0.414037500000000     0.042740500000000
1 9
    -0.171975000000000    -0.000000000000000    -0.105481000000000
    -0.000000000000000     0.114489000000000    -0.000000000000000
    -0.079037000000000    -0.000000000000000    -0.119088000000000
1 10
    -0.171933000000000    -0.000000000000000     0.079012500000000
    -0.000000000000000     0.114494000000000    -0.000000000000000
     0.105411000000000    -0.000000000000000    -0.119093000000000
1 11
    -0.026384000000000    -0.000000000000000    -0.027831500000000
    -0.000000000000000    -0.068618000000000    -0.000000000000000
    -0.011694500000000    -0.000000000000000    -0.029357500000000
1 12
    -0.026346000000000    -0.000000000000000     0.011643500000000
     0.000000000000000    -0.068622000000000     0.000000000000000
     0.027790500000000    -0.000000000000000    -0.029361000000000
1 13
     0.104112000000000    -0.036633500000000    -0.050627000000000
    -0.036629000000000     0.003323500000000    -0.049002000000000
     0.050654500000000     0.049014000000000    -0.099334000000000
1 14
    -0.129058500000000     0.033770000000000     0.006081000000000
     0.033800500000000    -0.000950000000000     0.001674500000000
    -0.006058000000000    -0.001670500000000    -0.038373500000000
1 15
     0.104112000000000     0.036633500000000    -0.050627000000000
     0.036629000000000     0.003323500000000     0.049002000000000
     0.050654500000000    -0.049014000000000    -0.099334000000000
1 16
    -0.129058500000000    -0.033770000000000     0.006081000000000
    -0.033800500000000    -0.000950000000000    -0.001674500000000
    -0.006058000000000     0.001670500000000    -0.038373500000000
1 17
     0.119740000000000    -0.070464500000000    -0.051842500000000
    -0.015435500000000    -0.064641500000000    -0.017258500000000
     0.021953000000000     0.034179000000000    -0.066716000000000
1 18
    -0.097313000000000     0.031843000000000     0.018613000000000
     0.008319500000000    -0.017710500000000    -0.002916500000000
    -0.005969500000000    -0.002957500000000    -0.010888000000000
1 19
     0.218823000000000    -0.001614000000000     0.014884000000000
     0.008116500000000     0.072294500000000     0.014031000000000
     0.139691500000000    -0.231399000000000    -0.269705500000000
1 20
    -0.117322000000000     0.000350500000000     0.007105500000000
    -0.008005500000000     0.017635000000000     0.002558500000000
    -0.007893500000000    -0.009267500000000    -0.016551500000000
1 21
    -0.149709000000000    -0.036051500000000    -0.016294000000000
    -0.023723000000000     0.064500000000000    -0.029446000000000
    -0.038648500000000     0.007193000000000    -0.015100000000000
1 22
    -0.132919000000000     0.134802500000000     0.406558000000000
     0.206317500000000     0.200643500000000    -0.256102000000000
     0.316479500000000    -0.055912000000000    -0.354355000000000
1 23
    -0.092483000000000     0.034355500000000    -0.012875500000000
     0.027668000000000    -0.069205500000000     0.020691000000000
    -0.025065500000000     0.014423500000000    -0.010028500000000
1 24
     0.027549500000000    -0.039451000000000     0.028461000000000
    -0.094864000000000    -0.182600500000000     0.099081500000000
     0.044170000000000     0.047580500000000    -0.045270500000000
1 25
    -0.193408000000000    -0.116924000000000     0.029359500000000
    -0.006627500000000     0.033561000000000     0.019372000000000
     0.080074000000000     0.075426000000000     0.029657000000000
1 26
    -0.066553000000000     0.249265000000000    -0.193923500000000
     0.142373500000000     0.115783000000000     0.119937000000000
    -0.200186000000000     0.191691000000000     0.016100500000000
1 27
    -0.063422000000000     0.068159000000000     0.034928000000000
     0.013936500000000    -0.027428000000000    -0.021410000000000
     0.003378000000000    -0.016500500000000     0.018112000000000
1 28
    -0.003749000000000    -0.170739500000000    -0.088646500000000
    -0.184713500000000    -0.179441000000000    -0.117061500000000
    -0.088936500000000    -0.099274000000000    -0.019071000000000
1 29
    -2.237905500000000     1.656999500000000    -1.124007500000000
     2.990806000000000    -0.264332500000000     1.023722000000000
    -2.057162500000000     1.056367500000000     0.599075500000000
1 30
    -0.223129000000000    -0.015425500000000     0.001647500000000
    -0.017891000000000     0.039915500000000    -0.007316500000000
     0.001209000000000    -0.005939000000000     0.022579500000000
1 31
     0.190565500000000    -0.127688000000000     0.039383000000000
    -0.025530500000000    -0.284952500000000     0.066075000000000
     0.006558500000000    -0.080936500000000     0.062664500000000
1 32
    -0.109504500000000     0.034443000000000    -0.014790000000000
     0.020199000000000    -0.041154000000000     0.007669000000000
    -0.002156000000000    -0.006524000000000     0.017103500000000
1 33
    -0.149709000000000     0.036051500000000    -0.016294000000000
     0.023723000000000     0.064500000000000     0.029446000000000
    -0.038648500000000    -0.007193000000000    -0.015100000000000
1 34
    -0.132919000000000    -0.134802500000000     0.406558000000000
    -0.206317500000000     0.200643500000000     0.256102000000000
     0.316479500000000     0.055912000000000    -0.354355000000000
1 35
    -0.092483000000000    -0.034355500000000    -0.012875500000000
    -0.027668000000000    -0.069205500000000    -0.020691000000000
    -0.025065500000000    -0.014423500000000    -0.010028500000000
1 36
     0.027549500000000     0.039451000000000     0.028461000000000
     0.094864000000000    -0.182600500000000    -0.099081500000000
     0.044170000000000    -0.047580500000000    -0.045270500000000
1 37
     0.218823000000000     0.001614000000000     0.014884000000000
    -0.008116500000000     0.072294500000000    -0.014031000000000
     0.139691500000000     0.231399000000000    -0.269705500000000
1 38
    -0.117322000000000    -0.000350500000000     0.007105500000000
     0.008005500000000     0.017635000000000    -0.002558500000000
    -0.007893500000000     0.009267500000000    -0.016551500000000
1 39
     0.119740000000000     0.070464500000000    -0.051842500000000
     0.015435500000000    -0.064641500000000     0.017258500000000
     0.021953000000000    -0.034179000000000    -0.066716000000000
1 40
    -0.097313000000000    -0.031843000000000     0.018613000000000
    -0.008319500000000    -0.017710500000000     0.002916500000000
    -0.005969500000000     0.002957500000000    -0.010888000000000
1 41
    -2.237905500000000    -1.656999500000000    -1.124007500000000
    -2.990806000000000    -0.264332500000000    -1.023722000000000
    -2.057162500000000    -1.056367500000000     0.599075500000000
1 42
    -0.223129000000000     0.015425500000000     0.001647500000000
     0.017891000000000     0.039915500000000     0.007316500000000
     0.001209000000000     0.005939000000000     0.022579500000000
1 43
     0.190565500000000     0.127688000000000     0.039383000000000
     0.025530500000000    -0.284952500000000    -0.066075000000000
     0.006558500000000     0.080936500000000     0.062664500000000
1 44
    -0.109504500000000    -0.034443000000000    -0.014790000000000
    -0.020199000000000    -0.041154000000000    -0.007669000000000
    -0.002156000000000     0.006524000000000     0.017103500000000
1 45
    -0.063422000000000    -0.068159000000000     0.034928000000000
    -0.013936500000000    -0.027428000000000     0.021410000000000
     0.003378000000000     0.016500500000000     0.018112000000000
1 46
    -0.003749000000000     0.170739500000000    -0.088646500000000
     0.184713500000000    -0.179441000000000     0.117061500000000
    -0.088936500000000     0.099274000000000    -0.019071000000000
1 47
    -0.193408000000000     0.116924000000000     0.029359500000000
     0.006627500000000     0.033561000000000    -0.019372000000000
     0.080074000000000    -0.075426000000000     0.029657000000000
1 48
    -0.066553000000000    -0.249265000000000    -0.193923500000000
    -0.142373500000000     0.115783000000000    -0.119937000000000
    -0.200186000000000    -0.191691000000000     0.016100500000000
1 49
    -0.185398500000000    -0.098525500000000     0.076388500000000
    -0.083632000000000    -0.021218000000000     0.059765000000000
    -0.056346000000000    -0.007669000000000     0.084883000000000
1 50
    -0.031644500000000     0.281061000000000    -0.049742500000000
     0.218456500000000    -0.070118500000000     0.026147500000000
    -0.026417000000000     0.006913000000000     0.203849500000000
1 51
    -0.185398500000000     0.098525500000000     0.076388500000000
     0.083632000000000    -0.021218000000000    -0.059765000000000
    -0.056346000000000     0.007669000000000     0.084883000000000
1 52
    -0.031644500000000    -0.281061000000000    -0.049742500000000
    -0.218456500000000    -0.070118500000000    -0.026147500000000
    -0.026417000000000    -0.006913000000000     0.203849500000000
1 53
    -2.485529499999999    -0.000000000000000     1.873477000000000
     0.000000000000000     1.337029000000000     0.000000000000000
     3.228752000000000    -0.000000000000000    -0.417059000000000
1 54
    -0.250500500000000    -0.000000000000000    -0.003171500000000
     0.000000000000000     0.031101000000000    -0.000000000000000
    -0.024739000000000    -0.000000000000000     0.032999000000000
1 55
     0.126436000000000    -0.000000000000000     0.015314000000000
     0.000000000000000    -0.110605000000000    -0.000000000000000
     0.006911000000000    -0.000000000000000     0.086767500000000
1 56
    -0.099333000000000    -0.000000000000000     0.016694500000000
    -0.000000000000000    -0.032006000000000    -0.000000000000000
    -0.019635000000000    -0.000000000000000     0.019950000000000
1 57
     0.158225000000000    -0.061663500000000    -0.059894500000000
    -0.039090000000000    -0.025734000000000    -0.163619000000000
    -0.037255500000000    -0.017690000000000    -0.219980500000000
1 58
    -0.113366000000000     0.008735000000000    -0.018696500000000
     0.014316000000000     0.000177500000000    -0.004250000000000
    -0.003924500000000    -0.001320500000000    -0.021896500000000
1 59
     0.158225000000000     0.061663500000000    -0.059894500000000
     0.039090000000000    -0.025734000000000     0.163619000000000
    -0.037255500000000     0.017690000000000    -0.219980500000000
1 60
    -0.113366000000000    -0.008735000000000    -0.018696500000000
    -0.014316000000000     0.000177500000000     0.004250000000000
    -0.003924500000000     0.001320500000000    -0.021896500000000
1 61
    -0.158441500000000    -0.000000000000000    -0.051738000000000
     0.000000000000000     0.022972000000000    -0.000000000000000
    -0.005565500000000    -0.000000000000000    -0.078584000000000
1 62
     0.053598000000000    -0.000000000000000     0.111379000000000
     0.000000000000000     0.116463000000000    -0.000000000000000
    -0.147635000000000    -0.000000000000000    -0.457097000000000
1 63
    -0.053561500000000    -0.000000000000000    -0.039027500000000
    -0.000000000000000    -0.024101000000000     0.000000000000000
    -0.007755000000000    -0.000000000000000    -0.028183000000000
1 64
     0.039536000000000    -0.000000000000000     0.012372000000000
     0.000000000000000    -0.076614000000000     0.000000000000000
    -0.006487500000000    -0.000000000000000    -0.067945000000000
1 65
     0.300467500000000    -0.000000000000000     0.054140000000000
     0.000000000000000    -0.113495000000000     0.000000000000000
     0.090603000000000    -0.000000000000000     0.077960500000000
1 66
     0.198186000000000    -0.000000000000000    -0.442194000000000
    -0.000000000000000    -0.553774000000000     0.000000000000000
    -0.223281500000000    -0.000000000000000     0.608868000000000
1 67
     0.060894000000000    -0.000000000000000     0.062630500000000
    -0.000000000000000     0.106162000000000    -0.000000000000000
     0.015727000000000    -0.000000000000000     0.040087000000000
1 68
     0.009191000000000    -0.000000000000000    -0.056539500000000
     0.000000000000000     0.275542000000000    -0.000000000000000
    -0.022702500000000    -0.000000000000000     0.096731000000000
1 69
    -0.145164500000000     0.072196000000000     0.073653000000000
     0.055463000000000    -0.009929500000000     0.126161000000000
    -0.035894000000000    -0.196534000000000     0.309945500000000
1 70
     0.193467500000000    -0.026657500000000    -0.003066500000000
    -0.037551000000000    -0.000342000000000     0.009933500000000
     0.008343000000000    -0.003525000000000     0.033159500000000
1 71
    -0.145164500000000    -0.072196000000000     0.073653000000000
    -0.055463000000000    -0.009929500000000    -0.126161000000000
    -0.035894000000000     0.196534000000000     0.309945500000000
1 72
     0.193467500000000     0.026657500000000    -0.003066500000000
     0.037551000000000    -0.000342000000000    -0.009933500000000
     0.008343000000000     0.003525000000000     0.033159500000000
1 73
   -31.818921999999993    -0.000000000000000    -1.354248000000000
     0.000000000000000    -6.267784000000001     0.000000000000000
    -1.185939500000000    -0.000000000000000    -6.467794000000000
1 74
     0.456089000000000    -0.000000000000000    -0.005183000000000
    -0.000000000000000    -0.066936000000000    -0.000000000000000
     0.015738500000000    -0.000000000000000    -0.048813000000000
1 75
    -0.377378500000000    -0.000000000000000    -0.122752000000000
     0.000000000000000     0.422765000000000     0.000000000000000
    -0.070230500000000    -0.000000000000000    -0.179344000000000
1 76
     0.206477500000000    -0.000000000000000     0.015232000000000
    -0.000000000000000     0.070380000000000     0.000000000000000
     0.019121500000000    -0.000000000000000    -0.030702000000000
1 77
     0.275114000000000     0.163975000000000    -0.070988000000000
     0.045164500000000    -0.008940000000000    -0.088722500000000
    -0.003806500000000    -0.081900500000000    -0.126322000000000
1 78
    -0.061920000000000    -0.552188500000000     0.224714000000000
    -0.650049500000000     0.075924000000000    -0.235676000000000
     0.298173000000000    -0.241022500000000    -0.216822000000000
1 79
     0.275114000000000    -0.163975000000000    -0.070988000000000
    -0.045164500000000    -0.008940000000000     0.088722500000000
    -0.003806500000000     0.081900500000000    -0.126322000000000
1 80
    -0.061920000000000     0.552188500000000     0.224714000000000
     0.650049500000000     0.075924000000000     0.235676000000000
     0.298173000000000     0.241022500000000    -0.216822000000000
1 81
    -0.336180000000000    -0.000000000000000     0.148444000000000
     0.000000000000000    -0.211043000000000     0.000000000000000
     0.096895500000000    -0.000000000000000     0.468140500000000
1 82
     0.122790500000000    -0.000000000000000    -0.011840000000000
     0.000000000000000    -0.015229000000000     0.000000000000000
    -0.004654500000000    -0.000000000000000     0.005349000000000
1 83
    -0.094431500000000    -0.000000000000000     0.003483000000000
    -0.000000000000000     0.092812000000000    -0.000000000000000
    -0.000702000000000    -0.000000000000000     0.033581500000000
1 84
     0.072395500000000    -0.000000000000000     0.001103500000000
     0.000000000000000     0.015264000000000    -0.000000000000000
     0.003725000000000    -0.000000000000000     0.003552000000000
1 85
    -0.112560000000000     0.264314500000000    -0.142464000000000
     0.124402000000000     0.086026500000000    -0.121423000000000
    -0.072919500000000    -0.120258000000000    -0.103522000000000
1 86
     0.116751000000000    -0.039372500000000     0.017582500000000
    -0.036745000000000     0.000003500000000    -0.004558000000000
     0.026535500000000    -0.005415500000000    -0.008545500000000
1 87
    -0.112560000000000    -0.264314500000000    -0.142464000000000
    -0.124402000000000     0.086026500000000     0.121423000000000
    -0.072919500000000     0.120258000000000    -0.103522000000000
1 88
     0.116751000000000     0.039372500000000     0.017582500000000
     0.036745000000000     0.000003500000000     0.004558000000000
     0.026535500000000     0.005415500000000    -0.008545500000000
1 89
     0.073243000000000     0.020989000000000     0.001094000000000
     0.011170000000000    -0.000101000000000     0.002413500000000
    -0.000952500000000    -0.003731000000000     0.016912500000000
1 90
    -0.080975000000000    -0.054736000000000     0.018194000000000
    -0.016558500000000     0.004336500000000    -0.015007000000000
     0.012079500000000    -0.018802000000000     0.098151000000000
1 91
     0.073243000000000    -0.020989000000000     0.001094000000000
    -0.011170000000000    -0.000101000000000    -0.002413500000000
    -0.000952500000000     0.003731000000000     0.016912500000000
1 92
    -0.080975000000000     0.054736000000000     0.018194000000000
     0.016558500000000     0.004336500000000     0.015007000000000
     0.012079500000000     0.018802000000000     0.098151000000000
1 93
     0.364143000000000    -0.000000000000000     0.015614500000000
     0.000000000000000    -0.117507000000000    -0.000000000000000
     0.024502000000000    -0.000000000000000    -0.116437000000000
1 94
    -0.846505000000000    -0.000000000000000     0.065511000000000
     0.000000000000000    -0.184128000000000    -0.000000000000000
     0.010738000000000    -0.000000000000000    -0.168066500000000
1 95
     0.032688500000000    -0.000000000000000    -0.004002500000000
     0.000000000000000     0.047857000000000    -0.000000000000000
     0.012946000000000    -0.000000000000000    -0.016410000000000
1 96
     0.002829500000000    -0.000000000000000    -0.019310500000000
     0.000000000000000     0.104740000000000    -0.000000000000000
    -0.003555500000000    -0.000000000000000    -0.036953000000000
1 97
    -0.885567500000000    -0.357611000000000    -0.196446000000000
    -0.254183000000000     0.785579000000000     0.474039500000000
    -0.183496000000000     0.543101500000000    -0.195862500000000
1 98
     0.245071500000000     0.003510000000000     0.005792000000000
     0.021769500000000     0.000302500000000     0.005658000000000
     0.025615000000000     0.001903500000000    -0.015022500000000
1 99
    -0.885567500000000     0.357611000000000    -0.196446000000000
     0.254183000000000     0.785579000000000    -0.474039500000000
    -0.183496000000000    -0.543101500000000    -0.195862500000000
1 100
     0.245071500000000    -0.003510000000000     0.005792000000000
    -0.021769500000000     0.000302500000000    -0.005658000000000
     0.025615000000000    -0.001903500000000    -0.015022500000000
1 101
     0.233394000000000     0.364909500000000     0.303582500000000
     0.227093000000000     0.185068000000000     0.185384000000000
     0.151057500000000     0.143523500000000     0.164487500000000
1 102
     0.187443500000000    -0.147354500000000    -0.083338500000000
    -0.093438000000000     0.013881500000000     0.049224500000000
    -0.070496000000000     0.048103500000000    -0.033171000000000
1 103
     0.233394000000000    -0.364909500000000     0.303582500000000
    -0.227093000000000     0.185068000000000    -0.185384000000000
     0.151057500000000    -0.143523500000000     0.164487500000000
1 104
     0.187443500000000     0.147354500000000    -0.083338500000000
     0.093438000000000     0.013881500000000    -0.049224500000000
    -0.070496000000000    -0.048103500000000    -0.033171000000000
1 105
     0.153959000000000    -0.000000000000000    -0.430420000000000
     0.000000000000000    -0.067134000000000    -0.000000000000000
    -0.212541500000000    -0.000000000000000     0.337184500000000
1 106
     0.220629000000000    -0.000000000000000     0.091880500000000
     0.000000000000000    -0.099011000000000    -0.000000000000000
     0.108082500000000    -0.000000000000000     0.114036000000000
1 107
    -0.032995500000000    -0.000000000000000    -0.014363000000000
    -0.000000000000000     0.084704000000000    -0.000000000000000
    -0.019317000000000    -0.000000000000000     0.012961500000000
1 108
     0.100945500000000    -0.000000000000000     0.040191000000000
     0.000000000000000     0.093193000000000     0.000000000000000
     0.036686000000000    -0.000000000000000     0.050742500000000
1 109
     0.275144500000000    -0.000000000000000     0.007499000000000
     0.000000000000000    -0.034783000000000    -0.000000000000000
    -0.015545500000000    -0.000000000000000     0.005507000000000
1 110
    -1.141471500000000    -0.000000000000000     0.292424500000000
     0.000000000000000    -0.550756000000000    -0.000000000000000
     0.305731000000000    -0.000000000000000    -0.514707000000000
1 111
     0.168128500000000    -0.000000000000000    -0.010746000000000
    -0.000000000000000     0.035859000000000     0.000000000000000
     0.008257000000000    -0.000000000000000     0.004217500000000
1 112
    -0.248883500000000    -0.000000000000000     0.052680500000000
    -0.000000000000000     0.286552000000000     0.000000000000000
    -0.046495000000000    -0.000000000000000     0.029603000000000
2 1
    -0.295680500000000     0.000000000000000    -0.011991000000000
    -0.000000000000000     0.022080000000000    -0.000000000000000
    -0.012028500000000     0.000000000000000     0.016394500000000
2 2
    41.577098999999990     0.000000000000000     1.736784000000000
     0.000000000000000     5.788462000000001     0.000000000000000
     1.734520999999999     0.000000000000000     7.049922000000000
2 3
    -0.151761000000000     0.000000000000000    -0.012904000000000
    -0.000000000000000    -0.023424000000000     0.000000000000000
    -0.012946500000000     0.000000000000000     0.010747500000000
2 4
     0.261874500000000     0.000000000000000     0.049247500000000
    -0.000000000000000    -0.220916000000000     0.000000000000000
     0.049234000000000     0.000000000000000     0.092008000000000
2 5
     0.288960000000000     0.339185000000000    -0.145250000000000
     0.339217500000000    -0.571209000000000     0.414052000000000
    -0.145212000000000     0.414037500000000     0.042740500000000
2 6
    -0.207033000000000    -0.022090000000000    -0.001635000000000
    -0.022091000000000     0.002838000000000     0.017121000000000
    -0.001618500000000     0.017124500000000     0.030956500000000
2 7
     0.288960000000000    -0.339185000000000    -0.145250000000000
    -0.339217500000000    -0.571209000000000    -0.414052000000000
    -0.145212000000000    -0.414037500000000     0.042740500000000
2 8
    -0.207033000000000     0.022090000000000    -0.001635000000000
     0.022091000000000     0.002838000000000    -0.017121000000000
    -0.001618500000000    -0.017124500000000     0.030956500000000
2 9
    -0.171933000000000     0.000000000000000     0.079012500000000
    -0.000000000000000     0.114494000000000    -0.000000000000000
     0.105411000000000     0.000000000000000    -0.119093000000000
2 10
    -0.171975000000000     0.000000000000000    -0.105481000000000
    -0.000000000000000     0.114489000000000    -0.000000000000000
    -0.079037000000000     0.000000000000000    -0.119088000000000
2 11
    -0.026346000000000     0.000000000000000     0.011643500000000
     0.000000000000000    -0.068622000000000     0.000000000000000
     0.027790500000000     0.000000000000000    -0.029361000000000
2 12
    -0.026384000000000     0.000000000000000    -0.027831500000000
    -0.000000000000000    -0.068618000000000    -0.000000000000000
    -0.011694500000000     0.000000000000000    -0.029357500000000
2 13
    -0.129058500000000     0.033770000000000     0.006081000000000
     0.033800500000000    -0.000950000000000     0.001674500000000
    -0.006058000000000    -0.001670500000000    -0.038373500000000
2 14
     0.104112000000000    -0.036633500000000    -0.050627000000000
    -0.036629000000000     0.003323500000000    -0.049002000000000
     0.050654500000000     0.049014000000000    -0.099334000000000
2 15
    -0.129058500000000    -0.033770000000000     0.006081000000000
    -0.033800500000000    -0.000950000000000    -0.001674500000000
    -0.006058000000000     0.001670500000000    -0.038373500000000
2 16
     0.104112000000000     0.036633500000000    -0.050627000000000
     0.036629000000000     0.003323500000000     0.049002000000000
     0.050654500000000    -0.049014000000000    -0.099334000000000
2 17
    -0.097313000000000     0.031843000000000     0.018613000000000
     0.008319500000000    -0.017710500000000    -0.002916500000000
    -0.005969500000000    -0.002957500000000    -0.010888000000000
2 18
     0.119740000000000    -0.070464500000000    -0.051842500000000
    -0.015435500000000    -0.064641500000000    -0.017258500000000
     0.021953000000000     0.034179000000000    -0.066716000000000
2 19
    -0.117322000000000     0.000350500000000     0.007105500000000
    -0.008005500000000     0.017635000000000     0.002558500000000
    -0.007893500000000    -0.009267500000000    -0.016551500000000
2 20
     0.218823000000000    -0.001614000000000     0.014884000000000
     0.008116500000000     0.072294500000000     0.014031000000000
     0.139691500000000    -0.231399000000000    -0.269705500000000
2 21
    -0.132919000000000     0.134802500000000     0.406558000000000
     0.206317500000000     0.200643500000000    -0.256102000000000
     0.316479500000000    -0.055912000000000    -0.354355000000000
2 22
    -0.149709000000000    -0.036051500000000    -0.016294000000000
    -0.023723000000000     0.064500000000000    -0.029446000000000
    -0.038648500000000     0.007193000000000    -0.015100000000000
2 23
     0.027549500000000    -0.039451000000000     0.028461000000000
    -0.094864000000000    -0.182600500000000     0.099081500000000
     0.044170000000000     0.047580500000000    -0.045270500000000
2 24
    -0.092483000000000     0.034355500000000    -0.012875500000000
     0.027668000000000    -0.069205500000000     0.020691000000000
    -0.025065500000000     0.014423500000000    -0.010028500000000
2 25
    -0.066553000000000     0.249265000000000    -0.193923500000000
     0.142373500000000     0.115783000000000     0.119937000000000
    -0.200186000000000     0.191691000000000     0.016100500000000
2 26
    -0.193408000000000    -0.116924000000000     0.029359500000000
    -0.006627500000000     0.033561000000000     0.019372000000000
     0.080074000000000     0.075426000000000     0.029657000000000
2 27
    -0.003749000000000    -0.170739500000000    -0.088646500000000
    -0.184713500000000    -0.179441000000000    -0.117061500000000
    -0.088936500000000    -0.099274000000000    -0.019071000000000
2 28
    -0.063422000000000     0.068159000000000     0.034928000000000
     0.013936500000000    -0.027428000000000    -0.021410000000000
     0.003378000000000    -0.016500500000000     0.018112000000000
2 29
    -0.223129000000000    -0.015425500000000     0.001647500000000
    -0.017891000000000     0.039915500000000    -0.007316500000000
     0.001209000000000    -0.005939000000000     0.022579500000000
2 30
    -2.237905499999999     1.656999500000000    -1.124007500000000
     2.990806000000000    -0.264332500000000     1.023722000000000
    -2.057162499999999     1.056367500000000     0.599075500000000
2 31
    -0.109504500000000     0.034443000000000    -0.014790000000000
     0.020199000000000    -0.041154000000000     0.007669000000000
    -0.002156000000000    -0.006524000000000     0.017103500000000
2 32
     0.190565500000000    -0.127688000000000     0.039383000000000
    -0.025530500000000    -0.284952500000000     0.066075000000000
     0.006558500000000    -0.080936500000000     0.062664500000000
2 33
    -0.132919000000000    -0.134802500000000     0.406558000000000
    -0.206317500000000     0.200643500000000     0.256102000000000
     0.316479500000000     0.055912000000000    -0.354355000000000
2 34
    -0.149709000000000     0.036051500000000    -0.016294000000000