112  
31   

1    
  0.0100000000000000   0.0000000000000000   0.0000000000000000
  -0.4270901400    0.0000000000   -0.0179518800
   0.0028878300    0.0000000000    0.0002619300
  -0.0026915600    0.0000000000   -0.0003512700
   0.0014507400    0.0000000000    0.0002709700
   0.0021400100    0.0002220500   -0.0001261500
  -0.0027981600   -0.0034141900    0.0013217500
   0.0021400100   -0.0002220500   -0.0001261500
  -0.0027981600    0.0034141900    0.0013217500
   0.0016505700    0.0000000000    0.0009129700
   0.0016583100    0.0000000000   -0.0009305600
   0.0001939800    0.0000000000    0.0001369000
   0.0001990800    0.0000000000   -0.0002589000
  -0.0009783200    0.0003665300    0.0006497200
   0.0013615700   -0.0003372400    0.0000812400
  -0.0009783200   -0.0003665300    0.0006497200
   0.0013615700    0.0003372400    0.0000812400
  -0.0013370900    0.0007368600    0.0000474000
   0.0008377900   -0.0002853000   -0.0006581400
  -0.0023330200    0.0000513300   -0.0006194000
   0.0010382800    0.0000275200   -0.0005440900
   0.0016348400    0.0003931100    0.0006356200
   0.0014751900   -0.0013136100   -0.0035885100
   0.0010624900   -0.0003123600    0.0006012700
  -0.0001354500    0.0004282500    0.0001857800
   0.0017991600    0.0011390200    0.0001776200
   0.0005343300   -0.0025167800    0.0024024600
   0.0004968400   -0.0007157600    0.0001216900
  -0.0000900100    0.0016764700    0.0013598400
   0.0226817400   -0.0167530700    0.0108744500
   0.0023650600    0.0001190200   -0.0004865600
  -0.0017739800    0.0012458900   -0.0008666300
   0.0012332800   -0.0003760200   -0.0003241000
   0.0016348400   -0.0003931100    0.0006356200
   0.0014751900    0.0013136100   -0.0035885100
   0.0010624900    0.0003123600    0.0006012700
  -0.0001354500   -0.0004282500    0.0001857800
  -0.0023330200   -0.0000513300   -0.0006194000
   0.0010382800   -0.0000275200   -0.0005440900
  -0.0013370900   -0.0007368600    0.0000474000
   0.0008377900    0.0002853000   -0.0006581400
   0.0226817400    0.0167530700    0.0108744500
   0.0023650600   -0.0001190200   -0.0004865600
  -0.0017739800   -0.0012458900   -0.0008666300
   0.0012332800    0.0003760200   -0.0003241000
   0.0004968400    0.0007157600    0.0001216900
  -0.0000900100   -0.0016764700    0.0013598400
   0.0017991600   -0.0011390200    0.0001776200
   0.0005343300    0.0025167800    0.0024024600
   0.0017815400    0.0009868200   -0.0013695700
   0.0002488500   -0.0028011600   -0.0001119500
   0.0017815400   -0.0009868200   -0.0013695700
   0.0002488500    0.0028011600   -0.0001119500
   0.0251599200    0.0000000000   -0.0183170600
   0.0025746900    0.0000000000    0.0006332100
  -0.0011943000    0.0000000000    0.0004525300
   0.0010687800    0.0000000000    0.0004366700
  -0.0016605700    0.0006163500    0.0012030500
   0.0010619300   -0.0000867500    0.0007930200
  -0.0016605700   -0.0006163500    0.0012030500
   0.0010619300    0.0000867500    0.0007930200
   0.0016594500    0.0000000000   -0.0000870600
  -0.0004548900    0.0000000000   -0.0017110800
   0.0006088500    0.0000000000   -0.0002141900
  -0.0003207100    0.0000000000   -0.0007278800
  -0.0027570900    0.0000000000    0.0003710100
  -0.0017456000    0.0000000000    0.0053337700
  -0.0003595600    0.0000000000    0.0002852700
   0.0001530000    0.0000000000    0.0014810200
   0.0012102900   -0.0007197300   -0.0016522600
  -0.0021859100    0.0002654700   -0.0008829100
   0.0012102900    0.0007197300   -0.0016522600
  -0.0021859100   -0.0002654700   -0.0008829100
   0.3294605200    0.0000000000    0.0132605900
  -0.0043052700    0.0000000000   -0.0008623300
   0.0040302300    0.0000000000    0.0003152600
  -0.0018192100    0.0000000000   -0.0010653500
  -0.0030001200   -0.0016437600    0.0016243100
   0.0003380600    0.0055075700   -0.0013265100
  -0.0030001200    0.0016437600    0.0016243100
   0.0003380600   -0.0055075700   -0.0013265100
   0.0033104400    0.0000000000   -0.0017260300
  -0.0012904300    0.0000000000   -0.0001339800
   0.0008845600    0.0000000000   -0.0002861400
  -0.0007864400    0.0000000000   -0.0002628400
   0.0011951000   -0.0026451100    0.0011739400
  -0.0011068100    0.0003918200   -0.0004263100
   0.0011951000    0.0026451100    0.0011739400
  -0.0011068100   -0.0003918200   -0.0004263100
  -0.0006709600   -0.0002105600    0.0002405500
   0.0008705600    0.0005484000    0.0000688000
  -0.0006709600    0.0002105600    0.0002405500
   0.0008705600   -0.0005484000    0.0000688000
  -0.0037083200    0.0000000000    0.0000943900
   0.0080596200    0.0000000000   -0.0003904900
  -0.0003875900    0.0000000000    0.0002917200
  -0.0000916700    0.0000000000    0.0004449400
   0.0085967600    0.0036141200    0.0018929000
  -0.0027026200   -0.0000369200   -0.0001479900
   0.0085967600   -0.0036141200    0.0018929000
  -0.0027026200    0.0000369200   -0.0001479900
  -0.0025857700   -0.0036541900   -0.0029511200
  -0.0021294300    0.0014704100    0.0009193000
  -0.0025857700    0.0036541900   -0.0029511200
  -0.0021294300   -0.0014704100    0.0009193000
  -0.0012877900    0.0000000000    0.0042257400
  -0.0019590600    0.0000000000   -0.0010040200
   0.0005843600    0.0000000000    0.0000542900
  -0.0007620100    0.0000000000   -0.0004920100
  -0.0025016500    0.0000000000    0.0000158900
   0.0116562500    0.0000000000   -0.0028475500
  -0.0014311900    0.0000000000    0.0001971800
   0.0027424300    0.0000000000   -0.0004406400

1    
 -0.0100000000000000   0.0000000000000000   0.0000000000000000
   0.4044518400    0.0000000000    0.0167838000
  -0.0030257800    0.0000000000    0.0000221100
   0.0025459300    0.0000000000    0.0006336800
  -0.0015844800    0.0000000000    0.0000128900
  -0.0020006500   -0.0002197500   -0.0001588500
   0.0029810400    0.0033695100   -0.0015832500
  -0.0020006500    0.0002197500   -0.0001588500
   0.0029810400   -0.0033695100   -0.0015832500
  -0.0017889300    0.0000000000   -0.0011966500
  -0.0017803500    0.0000000000    0.0006496900
  -0.0003337000    0.0000000000   -0.0004197300
  -0.0003278400    0.0000000000   -0.0000260300
   0.0011039200   -0.0003661400   -0.0003628200
  -0.0012196000    0.0003381600    0.0002028600
   0.0011039200    0.0003661400   -0.0003628200
  -0.0012196000   -0.0003381600    0.0002028600
   0.0010577100   -0.0006724300   -0.0009894500
  -0.0011084700    0.0003515600   -0.0002858800
   0.0020434400    0.0000190500   -0.0003217200
  -0.0013081600    0.0000345300   -0.0004019800
  -0.0013593400   -0.0003279200    0.0003097400
  -0.0011831900    0.0013824400    0.0045426500
  -0.0007871700    0.0003747500    0.0003437600
   0.0004155400   -0.0003607700    0.0007550000
  -0.0020690000   -0.0011994600    0.0007648100
  -0.0007967300    0.0024685200   -0.0014760100
  -0.0007716000    0.0006474200    0.0008202500
  -0.0001649900   -0.0017383200   -0.0004130900
  -0.0220763700    0.0163869200   -0.0116057000
  -0.0020975200   -0.0001894900   -0.0004536100
   0.0020373300   -0.0013078700   -0.0000789700
  -0.0009568100    0.0003128400   -0.0006199000
  -0.0013593400    0.0003279200    0.0003097400
  -0.0011831900   -0.0013824400    0.0045426500
  -0.0007871700   -0.0003747500    0.0003437600
   0.0004155400    0.0003607700    0.0007550000
   0.0020434400   -0.0000190500   -0.0003217200
  -0.0013081600   -0.0000345300   -0.0004019800
   0.0010577100    0.0006724300   -0.0009894500
  -0.0011084700   -0.0003515600   -0.0002858800
  -0.0220763700   -0.0163869200   -0.0116057000
  -0.0020975200    0.0001894900   -0.0004536100
   0.0020373300    0.0013078700   -0.0000789700
  -0.0009568100   -0.0003128400   -0.0006199000
  -0.0007716000   -0.0006474200    0.0008202500
  -0.0001649900    0.0017383200   -0.0004130900
  -0.0020690000    0.0011994600    0.0007648100
  -0.0007967300   -0.0024685200   -0.0014760100
  -0.0019264300   -0.0009836900    0.0001582000
  -0.0003840400    0.0028200600   -0.0011068000
  -0.0019264300    0.0009836900    0.0001582000
  -0.0003840400   -0.0028200600   -0.0011068000
  -0.0245506700    0.0000000000    0.0191524800
  -0.0024353200    0.0000000000    0.0005697800
   0.0013344200    0.0000000000    0.0007588100
  -0.0009178800    0.0000000000    0.0007705600
   0.0015039300   -0.0006169200    0.0000051600
  -0.0012053900    0.0000879500    0.0004190900
   0.0015039300    0.0006169200    0.0000051600
  -0.0012053900   -0.0000879500    0.0004190900
  -0.0015093800    0.0000000000   -0.0011218200
   0.0006170700    0.0000000000    0.0005165000
  -0.0004623800    0.0000000000   -0.0009947400
   0.0004700100    0.0000000000   -0.0004804400
   0.0032522600    0.0000000000    0.0014538100
   0.0022181200    0.0000000000   -0.0035101100
   0.0008583200    0.0000000000    0.0015378800
   0.0003368200    0.0000000000    0.0003502300
  -0.0016930000    0.0007241900   -0.0001792000
   0.0016834400   -0.0002676800   -0.0009442400
  -0.0016930000   -0.0007241900   -0.0001792000
   0.0016834400    0.0002676800   -0.0009442400
  -0.3069179200    0.0000000000   -0.0138243700
   0.0048165100    0.0000000000   -0.0009659900
  -0.0035173400    0.0000000000   -0.0021397800
   0.0023103400    0.0000000000   -0.0007607100
   0.0025021600    0.0016357400    0.0002045500
  -0.0009003400   -0.0055362000    0.0031677700
   0.0025021600   -0.0016357400    0.0002045500
  -0.0009003400    0.0055362000    0.0031677700
  -0.0034131600    0.0000000000    0.0012428500
   0.0011653800    0.0000000000   -0.0003707800
  -0.0010040700    0.0000000000   -0.0002164800
   0.0006614700    0.0000000000   -0.0002407700
  -0.0010561000    0.0026411800   -0.0016753400
   0.0012282100   -0.0003956300   -0.0000746600
  -0.0010561000   -0.0026411800   -0.0016753400
   0.0012282100    0.0003956300   -0.0000746600
   0.0007939000    0.0002092200    0.0002624300
  -0.0007489400   -0.0005463200    0.0004326800
   0.0007939000   -0.0002092200    0.0002624300
  -0.0007489400    0.0005463200    0.0004326800
   0.0035745400    0.0000000000    0.0004066800
  -0.0088704800    0.0000000000    0.0009197300
   0.0002661800    0.0000000000    0.0002116700
  -0.0000350800    0.0000000000    0.0000587300
  -0.0091145900   -0.0035381000   -0.0020360200
   0.0021988100    0.0000332800   -0.0000321500
  -0.0091145900    0.0035381000   -0.0020360200
   0.0021988100   -0.0000332800   -0.0000321500
   0.0020821100    0.0036440000    0.0031205300
   0.0016194400   -0.0014766800   -0.0007474700
   0.0020821100   -0.0036440000    0.0031205300
   0.0016194400    0.0014766800   -0.0007474700
   0.0017913900    0.0000000000   -0.0043826600
   0.0024535200    0.0000000000    0.0008335900
  -0.0000755500    0.0000000000   -0.0002329700
   0.0012569000    0.0000000000    0.0003118100
   0.0030012400    0.0000000000    0.0001658700
  -0.0111731800    0.0000000000    0.0030009400
   0.0019313800    0.0000000000   -0.0000177400
  -0.0022352400    0.0000000000    0.0006129700

1    
  0.0000000000000000   0.0100000000000000   0.0000000000000000
   0.0006046300   -0.0578846200    0.0000190200
  -0.0000727200   -0.0002208000    0.0001416400
  -0.0000615500    0.0022091600    0.0001405300
  -0.0000714200    0.0002342400    0.0001417900
   0.0002851100   -0.0000296100   -0.0003141100
  -0.0033336100    0.0057454100   -0.0043109100
  -0.0001567100   -0.0000271500    0.0000283100
   0.0034507400    0.0056787700    0.0039701300
  -0.0000703100   -0.0011448900   -0.0001405800
  -0.0000702200   -0.0011449400   -0.0001407600
  -0.0000678000    0.0006861800   -0.0001422300
  -0.0000718600    0.0006862200   -0.0001408600
   0.0004363500   -0.0000355100    0.0006330600
  -0.0002720100    0.0000091300    0.0001256700
  -0.0002962300   -0.0000309600   -0.0003469800
   0.0004040000    0.0000098700    0.0001591600
   0.0000208800    0.0006747700   -0.0003007800
  -0.0002221100    0.0002096600   -0.0004424700
  -0.0002156000   -0.0006843100   -0.0006076100
  -0.0000588100   -0.0001436700   -0.0004973800
   0.0003722400   -0.0006139200    0.0007664800
  -0.0019282200   -0.0019779400    0.0030378200
  -0.0001404800    0.0007251300    0.0002647100
   0.0010807400    0.0018551400   -0.0005142400
  -0.0000767700   -0.0003730300    0.0002780300
  -0.0015620200   -0.0011941200   -0.0007315300
  -0.0002769100    0.0002447200    0.0006867000
   0.0017042800    0.0017588900    0.0016392100
  -0.0296543900    0.0026202400   -0.0106459900
   0.0003129300   -0.0004308900   -0.0003992000
   0.0003999000    0.0028152400   -0.0011328200
  -0.0000675200    0.0003799100   -0.0005492100
  -0.0001022200   -0.0006760800    0.0001775600
   0.0021981300   -0.0020349300   -0.0020842200
   0.0004128800    0.0006589800    0.0006785300
  -0.0008165400    0.0017968700    0.0014673900
  -0.0000532700   -0.0007615800   -0.0003269900
  -0.0002189200   -0.0002090300   -0.0004462100
  -0.0002878300    0.0006180600   -0.0006459500
  -0.0000557200    0.0001445500   -0.0005008000
   0.0301617300    0.0026664100    0.0098284500
  -0.0000448900   -0.0003674200   -0.0005455300
  -0.0001107100    0.0028838100    0.0001886800
   0.0003364600    0.0004431700   -0.0003958300
   0.0000018200    0.0003038400    0.0002585000
  -0.0019899900    0.0018299300   -0.0007020200
  -0.0002093200   -0.0002981900    0.0006654700
   0.0012854500   -0.0011215400    0.0016672100
   0.0007598700    0.0002096000   -0.0012026600
  -0.0022635600    0.0007018700   -0.0008689500
  -0.0009127700    0.0002147600   -0.0000073600
   0.0021055700    0.0007005000   -0.0003460000
  -0.0000241200   -0.0133702900    0.0006433500
   0.0000706100   -0.0003110100    0.0006050800
   0.0000777700    0.0011060500    0.0006027400
   0.0000713300    0.0003200600    0.0006049600
   0.0003217400    0.0002540300    0.0022442600
  -0.0002186300   -0.0000019700    0.0006474500
  -0.0004600600    0.0002606500   -0.0010281200
   0.0000676900   -0.0000015800    0.0005624500
   0.0000708900   -0.0002297200   -0.0006034700
   0.0000768400   -0.0011646300   -0.0005997100
   0.0000730500    0.0002410100   -0.0006054700
   0.0000744100    0.0007661400   -0.0006019700
   0.0002518500    0.0011349500    0.0009125000
   0.0002473400    0.0055377400    0.0009086600
   0.0002472200   -0.0010616200    0.0009139400
   0.0002506700   -0.0027554200    0.0009087800
  -0.0008053400    0.0001072400   -0.0021794300
   0.0001314700    0.0000042800   -0.0010131500
   0.0003039200    0.0000913500    0.0003437900
  -0.0006195500    0.0000025600   -0.0008144800
  -0.0005379900    0.0626778400   -0.0009268700
   0.0002541600    0.0006693600   -0.0009131400
   0.0002367000   -0.0042276500   -0.0009121500
   0.0002519300   -0.0007038000   -0.0009138100
  -0.0006940200    0.0000957600    0.0018014700
   0.0062669100   -0.0007550000    0.0032759700
   0.0002092700    0.0000830400    0.0000270200
  -0.0067340800   -0.0007634800   -0.0014375500
  -0.0000645800    0.0021104300   -0.0002470000
  -0.0000598000    0.0001522900   -0.0002517200
  -0.0000644600   -0.0009281200   -0.0002536600
  -0.0000600300   -0.0001526400   -0.0002516600
  -0.0011887000   -0.0008527200    0.0009628600
   0.0004313700    0.0000001600   -0.0002058400
   0.0012993400   -0.0008678100   -0.0014656000
  -0.0003035300   -0.0000002300   -0.0002970000
  -0.0000487100    0.0000017300    0.0002269300
   0.0002262000   -0.0000421600    0.0004014800
   0.0001746900    0.0000002900    0.0002752000
  -0.0001049700   -0.0000445700    0.0001013400
  -0.0000530600    0.0011750700    0.0002545500
  -0.0000478900    0.0018412800    0.0002511700
  -0.0000620900   -0.0004785700    0.0002518500
  -0.0000596800   -0.0010474000    0.0002515100
   0.0022886700   -0.0078167700   -0.0048237700
  -0.0004648100   -0.0000022100   -0.0001453900
  -0.0027949900   -0.0078948100    0.0046570200
  -0.0000294200   -0.0000038400   -0.0000322300
  -0.0025198300   -0.0018432200   -0.0017592900
   0.0006875900   -0.0001380400   -0.0004044000
   0.0020220300   -0.0018581400    0.0019483900
  -0.0011811700   -0.0001395900    0.0005800900
   0.0002594900    0.0006713400   -0.0001077400
   0.0002535900    0.0009901100   -0.0000882500
   0.0002494100   -0.0008470400   -0.0000896600
   0.0002547200   -0.0009319300   -0.0000887900
   0.0002564100    0.0003478300    0.0000888100
   0.0002215300    0.0055075600    0.0000920100
   0.0002545800   -0.0003585900    0.0000889300
   0.0002454500   -0.0028655200    0.0000928400

1    
  0.0000000000000000   0.0000000000000000   0.0100000000000000
  -0.0167801000    0.0000000000   -0.0696608700
   0.0000472900    0.0000000000   -0.0000219900
  -0.0005553700    0.0000000000   -0.0007769800
   0.0000579000    0.0000000000    0.0000343900
   0.0000814800   -0.0001714000   -0.0004513100
   0.0015257300   -0.0041301300   -0.0005627800
   0.0000814800    0.0001714000   -0.0004513100
   0.0015257300    0.0041301300   -0.0005627800
   0.0007198100    0.0000000000    0.0010423600
  -0.0011321800    0.0000000000    0.0010464700
   0.0000480600    0.0000000000    0.0001496600
  -0.0003464900    0.0000000000    0.0001512400
  -0.0004321000   -0.0004882400    0.0011316600
   0.0001262800    0.0000180400    0.0005258600
  -0.0004321000    0.0004882400    0.0011316600
   0.0001262800   -0.0000180400    0.0005258600
  -0.0003538700   -0.0003079400    0.0001940900
  -0.0000792500    0.0000635400   -0.0003622000
  -0.0015201100    0.0023341200    0.0022199300
  -0.0000601000    0.0001241600   -0.0003065600
   0.0005204000   -0.0000400000    0.0006217200
  -0.0030399400    0.0006001500    0.0040211000
   0.0003858500   -0.0001104900    0.0005709800
  -0.0003040000   -0.0004444600    0.0009239200
  -0.0009398000   -0.0007880900    0.0001760200
   0.0018593800   -0.0019386600    0.0003150900
  -0.0001712500    0.0001340500    0.0002918800
   0.0007534700    0.0009567900    0.0006618900
   0.0206963200   -0.0106133300   -0.0065329600
   0.0001221300    0.0000269900   -0.0006981500
   0.0000753500    0.0007726000   -0.0010970100
   0.0001566400    0.0000341900   -0.0006438000
   0.0005204000    0.0000400000    0.0006217200
  -0.0030399400   -0.0006001500    0.0040211000
   0.0003858500    0.0001104900    0.0005709800
  -0.0003040000    0.0004444600    0.0009239200
  -0.0015201100   -0.0023341200    0.0022199300
  -0.0000601000   -0.0001241600   -0.0003065600
  -0.0003538700    0.0003079400    0.0001940900
  -0.0000792500   -0.0000635400   -0.0003622000
   0.0206963200    0.0106133300   -0.0065329600
   0.0001221300   -0.0000269900   -0.0006981500
   0.0000753500   -0.0007726000   -0.0010970100
   0.0001566400   -0.0000341900   -0.0006438000
  -0.0001712500   -0.0001340500    0.0002918800
   0.0007534700   -0.0009567900    0.0006618900
  -0.0009398000    0.0007880900    0.0001760200
   0.0018593800    0.0019386600    0.0003150900
   0.0004859400    0.0000749200   -0.0014505400
   0.0001920300   -0.0000669400   -0.0026409000
   0.0004859400   -0.0000749200   -0.0014505400
   0.0001920300    0.0000669400   -0.0026409000
  -0.0320712200    0.0000000000    0.0047690300
   0.0003177900    0.0000000000    0.0002758400
   0.0000062400    0.0000000000   -0.0002603600
   0.0002690000    0.0000000000    0.0004046700
   0.0003023200    0.0001786900    0.0027961700
  -0.0000363600    0.0000135500    0.0008231500
   0.0003023200   -0.0001786900    0.0027961700
  -0.0000363600   -0.0000135500    0.0008231500
   0.0001272100    0.0000000000    0.0001798100
   0.0015379200    0.0000000000    0.0039517000
   0.0001503200    0.0000000000   -0.0003249100
   0.0001395700    0.0000000000    0.0000760200
  -0.0006509800    0.0000000000    0.0001370600
   0.0024909000    0.0000000000   -0.0051676100
   0.0000914200    0.0000000000    0.0005148300
   0.0004758900    0.0000000000   -0.0000530700
   0.0001047200    0.0019546700   -0.0040052500
  -0.0003264700    0.0000343200   -0.0012452200
   0.0001047200   -0.0019546700   -0.0040052500
  -0.0003264700   -0.0000343200   -0.0012452200
   0.0113874600    0.0000000000    0.0636437400
   0.0000973600    0.0000000000   -0.0004259100
   0.0009433700    0.0000000000    0.0008749300
   0.0000601700    0.0000000000   -0.0006069400
  -0.0002050800    0.0008205900    0.0021730700
  -0.0032360700    0.0023996700    0.0030759100
  -0.0002050800   -0.0008205900    0.0021730700
  -0.0032360700   -0.0023996700    0.0030759100
  -0.0010408400    0.0000000000   -0.0049289300
  -0.0000119100    0.0000000000   -0.0003051400
  -0.0000560100    0.0000000000   -0.0005868000
  -0.0000971400    0.0000000000   -0.0002873000
   0.0007891300    0.0012066800    0.0007767400
  -0.0002018100    0.0000535400   -0.0001669100
   0.0007891300   -0.0012066800    0.0007767400
  -0.0002018100   -0.0000535400   -0.0001669100
   0.0000722600    0.0000376200    0.0000829900
  -0.0000590100    0.0001832400   -0.0007287000
   0.0000722600   -0.0000376200    0.0000829900
  -0.0000590100   -0.0001832400   -0.0007287000
  -0.0002971100    0.0000000000    0.0014143300
  -0.0001609700    0.0000000000    0.0019309100
  -0.0001898400    0.0000000000    0.0004153800
  -0.0000258800    0.0000000000    0.0006208300
   0.0015649500   -0.0054168700    0.0018859900
  -0.0005025100   -0.0000187900    0.0000607500
   0.0015649500    0.0054168700    0.0018859900
  -0.0005025100    0.0000187900    0.0000607500
  -0.0017542500   -0.0014238900   -0.0015446700
   0.0004574800   -0.0004841800    0.0004221900
  -0.0017542500    0.0014238900   -0.0015446700
   0.0004574800    0.0004841800    0.0004221900
   0.0023735000    0.0000000000   -0.0034683200
  -0.0008202900    0.0000000000   -0.0012313300
   0.0004429500    0.0000000000   -0.0002202800
  -0.0001135300    0.0000000000   -0.0005972700
   0.0004111400    0.0000000000    0.0000336500
  -0.0028298800    0.0000000000    0.0047904400
   0.0001720600    0.0000000000    0.0000466700
   0.0007126600    0.0000000000   -0.0002081700

1    
  0.0000000000000000   0.0000000000000000  -0.0100000000000000
   0.0179103200    0.0000000000    0.0713375700
  -0.0001932800    0.0000000000    0.0003059000
   0.0004293100    0.0000000000    0.0010631800
  -0.0002010300    0.0000000000    0.0002493400
   0.0000491100    0.0001710900    0.0001678200
  -0.0013785100    0.0041506200    0.0002920300
   0.0000491100   -0.0001710900    0.0001678200
  -0.0013785100   -0.0041506200    0.0002920300
  -0.0008609300    0.0000000000   -0.0013394000
   0.0009760400    0.0000000000   -0.0013353900
  -0.0001858300    0.0000000000   -0.0004374900
   0.0002093200    0.0000000000   -0.0004359800
   0.0005809900    0.0004920400   -0.0008550200
   0.0000051200   -0.0000153700   -0.0002416100
   0.0005809900   -0.0004920400   -0.0008550200
   0.0000051200    0.0000153700   -0.0002416100
   0.0000851900    0.0003756400   -0.0011402300
  -0.0001986400    0.0000043900   -0.0005799600
   0.0012737200   -0.0022938600   -0.0031741800
  -0.0002179700   -0.0000611900   -0.0006375900
  -0.0002525700    0.0001038600    0.0003197200
   0.0032896500   -0.0005180900   -0.0030660000
  -0.0001154600    0.0001779800    0.0003704100
   0.0005794000    0.0005071500    0.0000185100
   0.0006616800    0.0007204300    0.0007691600
  -0.0021443400    0.0018951600    0.0006371000
  -0.0001036900   -0.0001959600    0.0006541200
  -0.0010252600   -0.0010286900    0.0002804700
  -0.0204469300    0.0105140200    0.0054485500
   0.0001463100   -0.0000917900   -0.0002465600
   0.0002065200   -0.0008461300    0.0001562800
   0.0001135200   -0.0000962900   -0.0003017300
  -0.0002525700   -0.0001038600    0.0003197200
   0.0032896500    0.0005180900   -0.0030660000
  -0.0001154600   -0.0001779800    0.0003704100
   0.0005794000   -0.0005071500    0.0000185100
   0.0012737200    0.0022938600   -0.0031741800
  -0.0002179700    0.0000611900   -0.0006375900
   0.0000851900   -0.0003756400   -0.0011402300
  -0.0001986400   -0.0000043900   -0.0005799600
  -0.0204469300   -0.0105140200    0.0054485500
   0.0001463100    0.0000917900   -0.0002465600
   0.0002065200    0.0008461300    0.0001562800
   0.0001135200    0.0000962900   -0.0003017300
  -0.0001036900    0.0001959600    0.0006541200
  -0.0010252600    0.0010286900    0.0002804700
   0.0006616800   -0.0007204300    0.0007691600
  -0.0021443400   -0.0018951600    0.0006371000
  -0.0006409800   -0.0000784600    0.0002471200
  -0.0003363100    0.0000713200    0.0014360900
  -0.0006409800    0.0000784600    0.0002471200
  -0.0003363100   -0.0000713200    0.0014360900
   0.0325038200    0.0000000000   -0.0035721500
  -0.0001769900    0.0000000000    0.0009358200
   0.0001444600    0.0000000000    0.0014749900
  -0.0001237000    0.0000000000    0.0008036700
  -0.0004427900   -0.0001751100   -0.0016034400
  -0.0001148500   -0.0000128600    0.0003852200
  -0.0004427900    0.0001751100   -0.0016034400
  -0.0001148500    0.0000128600    0.0003852200
   0.0000159000    0.0000000000   -0.0013918700
  -0.0014147800    0.0000000000   -0.0051902400
  -0.0000047800    0.0000000000   -0.0008885700
   0.0000098200    0.0000000000   -0.0012828800
   0.0011610800    0.0000000000    0.0016962700
  -0.0019747300    0.0000000000    0.0070097500
   0.0004059600    0.0000000000    0.0013165700
   0.0000218400    0.0000000000    0.0018815500
  -0.0006131600   -0.0019760100    0.0021936600
  -0.0001596100   -0.0000361800   -0.0005820300
  -0.0006131600    0.0019760100    0.0021936600
  -0.0001596100    0.0000361800   -0.0005820300
  -0.0123313300    0.0000000000   -0.0657121400
   0.0004121300    0.0000000000   -0.0014021700
  -0.0004612400    0.0000000000   -0.0027119500
   0.0004426000    0.0000000000   -0.0012209800
  -0.0002812100   -0.0008174200   -0.0003533700
   0.0027273900   -0.0024207800   -0.0012605300
  -0.0002812100    0.0008174200   -0.0003533700
   0.0027273900    0.0024207800   -0.0012605300
   0.0008970700    0.0000000000    0.0044338800
  -0.0001050000    0.0000000000   -0.0001981600
  -0.0000700500    0.0000000000    0.0000848300
  -0.0000226400    0.0000000000   -0.0002162600
  -0.0006692600   -0.0011984800   -0.0012937000
   0.0003289000   -0.0000547700   -0.0003378200
  -0.0006692600    0.0011984800   -0.0012937000
   0.0003289000    0.0000547700   -0.0003378200
   0.0000532100   -0.0000370000    0.0004212400
   0.0001825800   -0.0001928000    0.0012343200
   0.0000532100    0.0000370000    0.0004212400
   0.0001825800    0.0001928000    0.0012343200
   0.0001929300    0.0000000000   -0.0009144100
   0.0000537900    0.0000000000   -0.0014304200
   0.0000690800    0.0000000000    0.0000871800
  -0.0000969900    0.0000000000   -0.0001182300
  -0.0021049700    0.0054451600   -0.0020312600
   0.0000097900    0.0000192800   -0.0002397000
  -0.0021049700   -0.0054451600   -0.0020312600
   0.0000097900   -0.0000192800   -0.0002397000
   0.0012669000    0.0014465800    0.0017450800
  -0.0009524400    0.0004778900   -0.0002412300
   0.0012669000   -0.0014465800    0.0017450800
  -0.0009524400   -0.0004778900   -0.0002412300
  -0.0018773300    0.0000000000    0.0032753700
   0.0013413600    0.0000000000    0.0010493900
   0.0000566100    0.0000000000    0.0000389500
   0.0006201900    0.0000000000    0.0004175800
   0.0001002300    0.0000000000    0.0001437900
   0.0032847400    0.0000000000   -0.0055037000
   0.0003372000    0.0000000000    0.0001310200
  -0.0002172400    0.0000000000    0.0003838900

17   
  0.0100000000000000   0.0000000000000000   0.0000000000000000
  -0.0012612200    0.0001559200   -0.0000771400
   0.0009039800   -0.0000831000    0.0002017200
  -0.0022495800   -0.0000832100   -0.0012457100
   0.0011036300    0.0000796200    0.0002216300
   0.0015639100   -0.0002386800    0.0002449400
   0.0014009600    0.0020511200   -0.0032920100
   0.0009934900    0.0002788600    0.0001093400
  -0.0002051700   -0.0009418900   -0.0005818500
  -0.0000389500   -0.0018484400   -0.0010317200
   0.0005688000    0.0001395700   -0.0001087400
   0.0005919100    0.0014212500   -0.0021482400
   0.0018623300   -0.0000670600    0.0006540900
   0.0226875500   -0.0301729600   -0.0206056300
   0.0022949700    0.0001778200    0.0001537300
  -0.0018409800    0.0002609100    0.0002060700
   0.0011631600   -0.0002009500    0.0001202700
  -0.1055087700    0.0848206900    0.0532711100
   0.0012251700   -0.0000895700   -0.0006113100
  -0.0011690500   -0.0003444200   -0.0002802600
   0.0006477400   -0.0001738900   -0.0006013600
   0.0008838000   -0.0006071800   -0.0001380800
   0.0002839700    0.0007046100    0.0007753300
   0.0008845100    0.0010855100   -0.0002676300
   0.0002798300   -0.0010279200    0.0015922200
   0.0006899100   -0.0006657800    0.0014932300
   0.0006950200    0.0012289200    0.0004191100
   0.0011422900    0.0017958600    0.0020417100
   0.0011307600   -0.0017522400   -0.0001756900
  -0.0006681900   -0.0000804500   -0.0006667500
   0.0008084600   -0.0001708800   -0.0003712400
  -0.0015453400    0.0007320700   -0.0007450400
   0.0010453700   -0.0001352300   -0.0003617700
   0.0006475200   -0.0007527800    0.0000404200
   0.0001543700    0.0001165200    0.0006066100
   0.0009648900    0.0001301000   -0.0003627800
   0.0007189400    0.0000768100    0.0017124500
  -0.0135304400    0.0048492500   -0.0003578800
   0.0010465000    0.0002198000   -0.0006458800
  -0.0035030800   -0.0017819600    0.0002417300
   0.0008044600    0.0000364000   -0.0005666400
  -0.0011140700   -0.0003212100   -0.0005649900
   0.0009247800    0.0001981400   -0.0003730100
  -0.0011125600   -0.0002850900   -0.0004811500
   0.0009240100    0.0001060900   -0.0003591600
   0.0016440100   -0.0006334200    0.0022628200
   0.0016381600    0.0008570000   -0.0006891900
   0.0000119900    0.0001845100    0.0006667200
   0.0000166700   -0.0005342200    0.0005372400
   0.0001746300   -0.0001751500   -0.0001258400
   0.0009615400    0.0003061100   -0.0018320000
  -0.0001252800    0.0002314800   -0.0001891500
   0.0001233100   -0.0003222800   -0.0011050400
  -0.0008788600   -0.0001788300    0.0008953500
   0.0008344400    0.0000331500    0.0004186400
  -0.0030687900    0.0003659700    0.0015967600
   0.0010984000   -0.0000376500    0.0003089400