phonopy:
  version: "2.21.2"
  frequency_unit_conversion_factor: 15.633302
  symmetry_tolerance: 1.00000e-05
  configuration:
    force_constants: "WRITE"
    dim: "2 0 0 0 2 0 0 0 1"
    full_force_constants: ".TRUE."

physical_unit:
  atomic_mass: "AMU"
  length: "angstrom"
  force_constants: "eV/angstrom^2"

space_group:
  type: "Pnma"
  number: 62
  Hall_symbol: "-P 2ac 2n"

supercell_matrix:
- [   2,   0,   0 ]
- [   0,   2,   0 ]
- [   0,   0,   1 ]

primitive_cell:
  lattice:
  - [     7.351778380000000,     0.000000000000000,     0.000000000000000 ] # a
  - [     0.000000000000000,     5.551790490000000,     0.000000000000000 ] # b
  - [     0.000000000000000,     0.000000000000000,     9.618651370000000 ] # c
  points:
  - symbol: O  # 1
    coordinates: [  0.016722370000000,  0.250000000000000,  0.074864020000000 ]
    mass: 15.999400
  - symbol: O  # 2
    coordinates: [  0.983277630000000,  0.750000000000000,  0.925135980000000 ]
    mass: 15.999400
  - symbol: O  # 3
    coordinates: [  0.516722370000000,  0.250000000000000,  0.425135980000000 ]
    mass: 15.999400
  - symbol: O  # 4
    coordinates: [  0.483277630000000,  0.750000000000000,  0.574864020000000 ]
    mass: 15.999400
  - symbol: O  # 5
    coordinates: [  0.208843830000000,  0.979717200000000,  0.661311210000000 ]
    mass: 15.999400
  - symbol: O  # 6
    coordinates: [  0.791156170000000,  0.479717200000000,  0.338688790000000 ]
    mass: 15.999400
  - symbol: O  # 7
    coordinates: [  0.708843830000000,  0.520282800000000,  0.838688790000000 ]
    mass: 15.999400
  - symbol: O  # 8
    coordinates: [  0.291156170000000,  0.020282800000000,  0.161311210000000 ]
    mass: 15.999400
  - symbol: O  # 9
    coordinates: [  0.791156170000000,  0.020282800000000,  0.338688790000000 ]
    mass: 15.999400
  - symbol: O  # 10
    coordinates: [  0.208843830000000,  0.520282800000000,  0.661311210000000 ]
    mass: 15.999400
  - symbol: O  # 11
    coordinates: [  0.291156170000000,  0.479717200000000,  0.161311210000000 ]
    mass: 15.999400
  - symbol: O  # 12
    coordinates: [  0.708843830000000,  0.979717200000000,  0.838688790000000 ]
    mass: 15.999400
  - symbol: O  # 13
    coordinates: [  0.693033290000000,  0.750000000000000,  0.067263810000000 ]
    mass: 15.999400
  - symbol: O  # 14
    coordinates: [  0.306966710000000,  0.250000000000000,  0.932736190000000 ]
    mass: 15.999400
  - symbol: O  # 15
    coordinates: [  0.193033290000000,  0.750000000000000,  0.432736190000000 ]
    mass: 15.999400
  - symbol: O  # 16
    coordinates: [  0.806966710000000,  0.250000000000000,  0.567263810000000 ]
    mass: 15.999400
  - symbol: P  # 17
    coordinates: [  0.726965660000000,  0.250000000000000,  0.416978760000000 ]
    mass: 30.973762
  - symbol: P  # 18
    coordinates: [  0.273034340000000,  0.750000000000000,  0.583021240000000 ]
    mass: 30.973762
  - symbol: P  # 19
    coordinates: [  0.226965660000000,  0.250000000000000,  0.083021240000000 ]
    mass: 30.973762
  - symbol: P  # 20
    coordinates: [  0.773034340000000,  0.750000000000000,  0.916978760000000 ]
    mass: 30.973762
  - symbol: K  # 21
    coordinates: [  0.155980540000000,  0.250000000000000,  0.415536140000000 ]
    mass: 39.098300
  - symbol: K  # 22
    coordinates: [  0.344019460000000,  0.750000000000000,  0.915536140000000 ]
    mass: 39.098300
  - symbol: K  # 23
    coordinates: [  0.844019460000000,  0.750000000000000,  0.584463860000000 ]
    mass: 39.098300
  - symbol: K  # 24
    coordinates: [  0.655980540000000,  0.250000000000000,  0.084463860000000 ]
    mass: 39.098300
  - symbol: Sr # 25
    coordinates: [  0.002017420000000,  0.750000000000000,  0.196082000000000 ]
    mass: 87.620000
  - symbol: Sr # 26
    coordinates: [  0.502017420000000,  0.750000000000000,  0.303918000000000 ]
    mass: 87.620000
  - symbol: Sr # 27
    coordinates: [  0.497982580000000,  0.250000000000000,  0.696082000000000 ]
    mass: 87.620000
  - symbol: Sr # 28
    coordinates: [  0.997982580000000,  0.250000000000000,  0.803918000000000 ]
    mass: 87.620000
  reciprocal_lattice: # without 2pi
  - [     0.136021510485195,     0.000000000000000,     0.000000000000000 ] # a*
  - [     0.000000000000000,     0.180122070852857,     0.000000000000000 ] # b*
  - [     0.000000000000000,     0.000000000000000,     0.103964678782198 ] # c*

unit_cell:
  lattice:
  - [     7.351778380000000,     0.000000000000000,     0.000000000000000 ] # a
  - [     0.000000000000000,     5.551790490000000,     0.000000000000000 ] # b
  - [     0.000000000000000,     0.000000000000000,     9.618651370000000 ] # c
  points:
  - symbol: O  # 1
    coordinates: [  0.016722370000000,  0.250000000000000,  0.074864020000000 ]
    mass: 15.999400
    reduced_to: 1
  - symbol: O  # 2
    coordinates: [  0.983277630000000,  0.750000000000000,  0.925135980000000 ]
    mass: 15.999400
    reduced_to: 2
  - symbol: O  # 3
    coordinates: [  0.516722370000000,  0.250000000000000,  0.425135980000000 ]
    mass: 15.999400
    reduced_to: 3
  - symbol: O  # 4
    coordinates: [  0.483277630000000,  0.750000000000000,  0.574864020000000 ]
    mass: 15.999400
    reduced_to: 4
  - symbol: O  # 5
    coordinates: [  0.208843830000000,  0.979717200000000,  0.661311210000000 ]
    mass: 15.999400
    reduced_to: 5
  - symbol: O  # 6
    coordinates: [  0.791156170000000,  0.479717200000000,  0.338688790000000 ]
    mass: 15.999400
    reduced_to: 6
  - symbol: O  # 7
    coordinates: [  0.708843830000000,  0.520282800000000,  0.838688790000000 ]
    mass: 15.999400
    reduced_to: 7
  - symbol: O  # 8
    coordinates: [  0.291156170000000,  0.020282800000000,  0.161311210000000 ]
    mass: 15.999400
    reduced_to: 8
  - symbol: O  # 9
    coordinates: [  0.791156170000000,  0.020282800000000,  0.338688790000000 ]
    mass: 15.999400
    reduced_to: 9
  - symbol: O  # 10
    coordinates: [  0.208843830000000,  0.520282800000000,  0.661311210000000 ]
    mass: 15.999400
    reduced_to: 10
  - symbol: O  # 11
    coordinates: [  0.291156170000000,  0.479717200000000,  0.161311210000000 ]
    mass: 15.999400
    reduced_to: 11
  - symbol: O  # 12
    coordinates: [  0.708843830000000,  0.979717200000000,  0.838688790000000 ]
    mass: 15.999400
    reduced_to: 12
  - symbol: O  # 13
    coordinates: [  0.693033290000000,  0.750000000000000,  0.067263810000000 ]
    mass: 15.999400
    reduced_to: 13
  - symbol: O  # 14
    coordinates: [  0.306966710000000,  0.250000000000000,  0.932736190000000 ]
    mass: 15.999400
    reduced_to: 14
  - symbol: O  # 15
    coordinates: [  0.193033290000000,  0.750000000000000,  0.432736190000000 ]
    mass: 15.999400
    reduced_to: 15
  - symbol: O  # 16
    coordinates: [  0.806966710000000,  0.250000000000000,  0.567263810000000 ]
    mass: 15.999400
    reduced_to: 16
  - symbol: P  # 17
    coordinates: [  0.726965660000000,  0.250000000000000,  0.416978760000000 ]
    mass: 30.973762
    reduced_to: 17
  - symbol: P  # 18
    coordinates: [  0.273034340000000,  0.750000000000000,  0.583021240000000 ]
    mass: 30.973762
    reduced_to: 18
  - symbol: P  # 19
    coordinates: [  0.226965660000000,  0.250000000000000,  0.083021240000000 ]
    mass: 30.973762
    reduced_to: 19
  - symbol: P  # 20
    coordinates: [  0.773034340000000,  0.750000000000000,  0.916978760000000 ]
    mass: 30.973762
    reduced_to: 20
  - symbol: K  # 21
    coordinates: [  0.155980540000000,  0.250000000000000,  0.415536140000000 ]
    mass: 39.098300
    reduced_to: 21
  - symbol: K  # 22
    coordinates: [  0.344019460000000,  0.750000000000000,  0.915536140000000 ]
    mass: 39.098300
    reduced_to: 22
  - symbol: K  # 23
    coordinates: [  0.844019460000000,  0.750000000000000,  0.584463860000000 ]
    mass: 39.098300
    reduced_to: 23
  - symbol: K  # 24
    coordinates: [  0.655980540000000,  0.250000000000000,  0.084463860000000 ]
    mass: 39.098300
    reduced_to: 24
  - symbol: Sr # 25
    coordinates: [  0.002017420000000,  0.750000000000000,  0.196082000000000 ]
    mass: 87.620000
    reduced_to: 25
  - symbol: Sr # 26
    coordinates: [  0.502017420000000,  0.750000000000000,  0.303918000000000 ]
    mass: 87.620000
    reduced_to: 26
  - symbol: Sr # 27
    coordinates: [  0.497982580000000,  0.250000000000000,  0.696082000000000 ]
    mass: 87.620000
    reduced_to: 27
  - symbol: Sr # 28
    coordinates: [  0.997982580000000,  0.250000000000000,  0.803918000000000 ]
    mass: 87.620000
    reduced_to: 28

supercell:
  lattice:
  - [    14.703556760000000,     0.000000000000000,     0.000000000000000 ] # a
  - [     0.000000000000000,    11.103580980000000,     0.000000000000000 ] # b
  - [     0.000000000000000,     0.000000000000000,     9.618651370000000 ] # c
  points:
  - symbol: O  # 1
    coordinates: [  0.008361185000000,  0.125000000000000,  0.074864020000000 ]
    mass: 15.999400
    reduced_to: 1
  - symbol: O  # 2
    coordinates: [  0.508361185000000,  0.125000000000000,  0.074864020000000 ]
    mass: 15.999400
    reduced_to: 1
  - symbol: O  # 3
    coordinates: [  0.008361185000000,  0.625000000000000,  0.074864020000000 ]
    mass: 15.999400
    reduced_to: 1
  - symbol: O  # 4
    coordinates: [  0.508361185000000,  0.625000000000000,  0.074864020000000 ]
    mass: 15.999400
    reduced_to: 1
  - symbol: O  # 5
    coordinates: [  0.491638815000000,  0.375000000000000,  0.925135980000000 ]
    mass: 15.999400
    reduced_to: 5
  - symbol: O  # 6
    coordinates: [  0.991638815000000,  0.375000000000000,  0.925135980000000 ]
    mass: 15.999400
    reduced_to: 5
  - symbol: O  # 7
    coordinates: [  0.491638815000000,  0.875000000000000,  0.925135980000000 ]
    mass: 15.999400
    reduced_to: 5
  - symbol: O  # 8
    coordinates: [  0.991638815000000,  0.875000000000000,  0.925135980000000 ]
    mass: 15.999400
    reduced_to: 5
  - symbol: O  # 9
    coordinates: [  0.258361185000000,  0.125000000000000,  0.425135980000000 ]
    mass: 15.999400
    reduced_to: 9
  - symbol: O  # 10
    coordinates: [  0.758361185000000,  0.125000000000000,  0.425135980000000 ]
    mass: 15.999400
    reduced_to: 9
  - symbol: O  # 11
    coordinates: [  0.258361185000000,  0.625000000000000,  0.425135980000000 ]
    mass: 15.999400
    reduced_to: 9
  - symbol: O  # 12
    coordinates: [  0.758361185000000,  0.625000000000000,  0.425135980000000 ]
    mass: 15.999400
    reduced_to: 9
  - symbol: O  # 13
    coordinates: [  0.241638815000000,  0.375000000000000,  0.574864020000000 ]
    mass: 15.999400
    reduced_to: 13
  - symbol: O  # 14
    coordinates: [  0.741638815000000,  0.375000000000000,  0.574864020000000 ]
    mass: 15.999400
    reduced_to: 13
  - symbol: O  # 15
    coordinates: [  0.241638815000000,  0.875000000000000,  0.574864020000000 ]
    mass: 15.999400
    reduced_to: 13
  - symbol: O  # 16
    coordinates: [  0.741638815000000,  0.875000000000000,  0.574864020000000 ]
    mass: 15.999400
    reduced_to: 13
  - symbol: O  # 17
    coordinates: [  0.104421915000000,  0.489858600000000,  0.661311210000000 ]
    mass: 15.999400
    reduced_to: 17
  - symbol: O  # 18
    coordinates: [  0.604421915000000,  0.489858600000000,  0.661311210000000 ]
    mass: 15.999400
    reduced_to: 17
  - symbol: O  # 19
    coordinates: [  0.104421915000000,  0.989858600000000,  0.661311210000000 ]
    mass: 15.999400
    reduced_to: 17
  - symbol: O  # 20
    coordinates: [  0.604421915000000,  0.989858600000000,  0.661311210000000 ]
    mass: 15.999400
    reduced_to: 17
  - symbol: O  # 21
    coordinates: [  0.395578085000000,  0.239858600000000,  0.338688790000000 ]
    mass: 15.999400
    reduced_to: 21
  - symbol: O  # 22
    coordinates: [  0.895578085000000,  0.239858600000000,  0.338688790000000 ]
    mass: 15.999400
    reduced_to: 21
  - symbol: O  # 23
    coordinates: [  0.395578085000000,  0.739858600000000,  0.338688790000000 ]
    mass: 15.999400
    reduced_to: 21
  - symbol: O  # 24
    coordinates: [  0.895578085000000,  0.739858600000000,  0.338688790000000 ]
    mass: 15.999400
    reduced_to: 21
  - symbol: O  # 25
    coordinates: [  0.354421915000000,  0.260141400000000,  0.838688790000000 ]
    mass: 15.999400
    reduced_to: 25
  - symbol: O  # 26
    coordinates: [  0.854421915000000,  0.260141400000000,  0.838688790000000 ]
    mass: 15.999400
    reduced_to: 25
  - symbol: O  # 27
    coordinates: [  0.354421915000000,  0.760141400000000,  0.838688790000000 ]
    mass: 15.999400
    reduced_to: 25
  - symbol: O  # 28
    coordinates: [  0.854421915000000,  0.760141400000000,  0.838688790000000 ]
    mass: 15.999400
    reduced_to: 25
  - symbol: O  # 29
    coordinates: [  0.145578085000000,  0.010141400000000,  0.161311210000000 ]
    mass: 15.999400
    reduced_to: 29
  - symbol: O  # 30
    coordinates: [  0.645578085000000,  0.010141400000000,  0.161311210000000 ]
    mass: 15.999400
    reduced_to: 29
  - symbol: O  # 31
    coordinates: [  0.145578085000000,  0.510141400000000,  0.161311210000000 ]
    mass: 15.999400
    reduced_to: 29
  - symbol: O  # 32
    coordinates: [  0.645578085000000,  0.510141400000000,  0.161311210000000 ]
    mass: 15.999400
    reduced_to: 29
  - symbol: O  # 33
    coordinates: [  0.395578085000000,  0.010141400000000,  0.338688790000000 ]
    mass: 15.999400
    reduced_to: 33
  - symbol: O  # 34
    coordinates: [  0.895578085000000,  0.010141400000000,  0.338688790000000 ]
    mass: 15.999400
    reduced_to: 33
  - symbol: O  # 35
    coordinates: [  0.395578085000000,  0.510141400000000,  0.338688790000000 ]
    mass: 15.999400
    reduced_to: 33
  - symbol: O  # 36
    coordinates: [  0.895578085000000,  0.510141400000000,  0.338688790000000 ]
    mass: 15.999400
    reduced_to: 33
  - symbol: O  # 37
    coordinates: [  0.104421915000000,  0.260141400000000,  0.661311210000000 ]
    mass: 15.999400
    reduced_to: 37
  - symbol: O  # 38
    coordinates: [  0.604421915000000,  0.260141400000000,  0.661311210000000 ]
    mass: 15.999400
    reduced_to: 37
  - symbol: O  # 39
    coordinates: [  0.104421915000000,  0.760141400000000,  0.661311210000000 ]
    mass: 15.999400
    reduced_to: 37
  - symbol: O  # 40
    coordinates: [  0.604421915000000,  0.760141400000000,  0.661311210000000 ]
    mass: 15.999400
    reduced_to: 37
  - symbol: O  # 41
    coordinates: [  0.145578085000000,  0.239858600000000,  0.161311210000000 ]
    mass: 15.999400
    reduced_to: 41
  - symbol: O  # 42
    coordinates: [  0.645578085000000,  0.239858600000000,  0.161311210000000 ]
    mass: 15.999400
    reduced_to: 41
  - symbol: O  # 43
    coordinates: [  0.145578085000000,  0.739858600000000,  0.161311210000000 ]
    mass: 15.999400
    reduced_to: 41
  - symbol: O  # 44
    coordinates: [  0.645578085000000,  0.739858600000000,  0.161311210000000 ]
    mass: 15.999400
    reduced_to: 41
  - symbol: O  # 45
    coordinates: [  0.354421915000000,  0.489858600000000,  0.838688790000000 ]
    mass: 15.999400
    reduced_to: 45
  - symbol: O  # 46
    coordinates: [  0.854421915000000,  0.489858600000000,  0.838688790000000 ]
    mass: 15.999400
    reduced_to: 45
  - symbol: O  # 47
    coordinates: [  0.354421915000000,  0.989858600000000,  0.838688790000000 ]
    mass: 15.999400
    reduced_to: 45
  - symbol: O  # 48
    coordinates: [  0.854421915000000,  0.989858600000000,  0.838688790000000 ]
    mass: 15.999400
    reduced_to: 45
  - symbol: O  # 49
    coordinates: [  0.346516645000000,  0.375000000000000,  0.067263810000000 ]
    mass: 15.999400
    reduced_to: 49
  - symbol: O  # 50
    coordinates: [  0.846516645000000,  0.375000000000000,  0.067263810000000 ]
    mass: 15.999400
    reduced_to: 49
  - symbol: O  # 51
    coordinates: [  0.346516645000000,  0.875000000000000,  0.067263810000000 ]
    mass: 15.999400
    reduced_to: 49
  - symbol: O  # 52
    coordinates: [  0.846516645000000,  0.875000000000000,  0.067263810000000 ]
    mass: 15.999400
    reduced_to: 49
  - symbol: O  # 53
    coordinates: [  0.153483355000000,  0.125000000000000,  0.932736190000000 ]
    mass: 15.999400
    reduced_to: 53
  - symbol: O  # 54
    coordinates: [  0.653483355000000,  0.125000000000000,  0.932736190000000 ]
    mass: 15.999400
    reduced_to: 53
  - symbol: O  # 55
    coordinates: [  0.153483355000000,  0.625000000000000,  0.932736190000000 ]
    mass: 15.999400
    reduced_to: 53
  - symbol: O  # 56
    coordinates: [  0.653483355000000,  0.625000000000000,  0.932736190000000 ]
    mass: 15.999400
    reduced_to: 53
  - symbol: O  # 57
    coordinates: [  0.096516645000000,  0.375000000000000,  0.432736190000000 ]
    mass: 15.999400
    reduced_to: 57
  - symbol: O  # 58
    coordinates: [  0.596516645000000,  0.375000000000000,  0.432736190000000 ]
    mass: 15.999400
    reduced_to: 57
  - symbol: O  # 59
    coordinates: [  0.096516645000000,  0.875000000000000,  0.432736190000000 ]
    mass: 15.999400
    reduced_to: 57
  - symbol: O  # 60
    coordinates: [  0.596516645000000,  0.875000000000000,  0.432736190000000 ]
    mass: 15.999400
    reduced_to: 57
  - symbol: O  # 61
    coordinates: [  0.403483355000000,  0.125000000000000,  0.567263810000000 ]
    mass: 15.999400
    reduced_to: 61
  - symbol: O  # 62
    coordinates: [  0.903483355000000,  0.125000000000000,  0.567263810000000 ]
    mass: 15.999400
    reduced_to: 61
  - symbol: O  # 63
    coordinates: [  0.403483355000000,  0.625000000000000,  0.567263810000000 ]
    mass: 15.999400
    reduced_to: 61
  - symbol: O  # 64
    coordinates: [  0.903483355000000,  0.625000000000000,  0.567263810000000 ]
    mass: 15.999400
    reduced_to: 61
  - symbol: P  # 65
    coordinates: [  0.363482830000000,  0.125000000000000,  0.416978760000000 ]
    mass: 30.973762
    reduced_to: 65
  - symbol: P  # 66
    coordinates: [  0.863482830000000,  0.125000000000000,  0.416978760000000 ]
    mass: 30.973762
    reduced_to: 65
  - symbol: P  # 67
    coordinates: [  0.363482830000000,  0.625000000000000,  0.416978760000000 ]
    mass: 30.973762
    reduced_to: 65
  - symbol: P  # 68
    coordinates: [  0.863482830000000,  0.625000000000000,  0.416978760000000 ]
    mass: 30.973762
    reduced_to: 65
  - symbol: P  # 69
    coordinates: [  0.136517170000000,  0.375000000000000,  0.583021240000000 ]
    mass: 30.973762
    reduced_to: 69
  - symbol: P  # 70
    coordinates: [  0.636517170000000,  0.375000000000000,  0.583021240000000 ]
    mass: 30.973762
    reduced_to: 69
  - symbol: P  # 71
    coordinates: [  0.136517170000000,  0.875000000000000,  0.583021240000000 ]
    mass: 30.973762
    reduced_to: 69
  - symbol: P  # 72
    coordinates: [  0.636517170000000,  0.875000000000000,  0.583021240000000 ]
    mass: 30.973762
    reduced_to: 69
  - symbol: P  # 73
    coordinates: [  0.113482830000000,  0.125000000000000,  0.083021240000000 ]
    mass: 30.973762
    reduced_to: 73
  - symbol: P  # 74
    coordinates: [  0.613482830000000,  0.125000000000000,  0.083021240000000 ]
    mass: 30.973762
    reduced_to: 73
  - symbol: P  # 75
    coordinates: [  0.113482830000000,  0.625000000000000,  0.083021240000000 ]
    mass: 30.973762
    reduced_to: 73
  - symbol: P  # 76
    coordinates: [  0.613482830000000,  0.625000000000000,  0.083021240000000 ]
    mass: 30.973762
    reduced_to: 73
  - symbol: P  # 77
    coordinates: [  0.386517170000000,  0.375000000000000,  0.916978760000000 ]
    mass: 30.973762
    reduced_to: 77
  - symbol: P  # 78
    coordinates: [  0.886517170000000,  0.375000000000000,  0.916978760000000 ]
    mass: 30.973762
    reduced_to: 77
  - symbol: P  # 79
    coordinates: [  0.386517170000000,  0.875000000000000,  0.916978760000000 ]
    mass: 30.973762
    reduced_to: 77
  - symbol: P  # 80
    coordinates: [  0.886517170000000,  0.875000000000000,  0.916978760000000 ]
    mass: 30.973762
    reduced_to: 77
  - symbol: K  # 81
    coordinates: [  0.077990270000000,  0.125000000000000,  0.415536140000000 ]
    mass: 39.098300
    reduced_to: 81
  - symbol: K  # 82
    coordinates: [  0.577990270000000,  0.125000000000000,  0.415536140000000 ]
    mass: 39.098300
    reduced_to: 81
  - symbol: K  # 83
    coordinates: [  0.077990270000000,  0.625000000000000,  0.415536140000000 ]
    mass: 39.098300
    reduced_to: 81
  - symbol: K  # 84
    coordinates: [  0.577990270000000,  0.625000000000000,  0.415536140000000 ]
    mass: 39.098300
    reduced_to: 81
  - symbol: K  # 85
    coordinates: [  0.172009730000000,  0.375000000000000,  0.915536140000000 ]
    mass: 39.098300
    reduced_to: 85
  - symbol: K  # 86
    coordinates: [  0.672009730000000,  0.375000000000000,  0.915536140000000 ]
    mass: 39.098300
    reduced_to: 85
  - symbol: K  # 87
    coordinates: [  0.172009730000000,  0.875000000000000,  0.915536140000000 ]
    mass: 39.098300
    reduced_to: 85
  - symbol: K  # 88
    coordinates: [  0.672009730000000,  0.875000000000000,  0.915536140000000 ]
    mass: 39.098300
    reduced_to: 85
  - symbol: K  # 89
    coordinates: [  0.422009730000000,  0.375000000000000,  0.584463860000000 ]
    mass: 39.098300
    reduced_to: 89
  - symbol: K  # 90
    coordinates: [  0.922009730000000,  0.375000000000000,  0.584463860000000 ]
    mass: 39.098300
    reduced_to: 89
  - symbol: K  # 91
    coordinates: [  0.422009730000000,  0.875000000000000,  0.584463860000000 ]
    mass: 39.098300
    reduced_to: 89
  - symbol: K  # 92
    coordinates: [  0.922009730000000,  0.875000000000000,  0.584463860000000 ]
    mass: 39.098300
    reduced_to: 89
  - symbol: K  # 93
    coordinates: [  0.327990270000000,  0.125000000000000,  0.084463860000000 ]
    mass: 39.098300
    reduced_to: 93
  - symbol: K  # 94
    coordinates: [  0.827990270000000,  0.125000000000000,  0.084463860000000 ]
    mass: 39.098300
    reduced_to: 93
  - symbol: K  # 95
    coordinates: [  0.327990270000000,  0.625000000000000,  0.084463860000000 ]
    mass: 39.098300
    reduced_to: 93
  - symbol: K  # 96
    coordinates: [  0.827990270000000,  0.625000000000000,  0.084463860000000 ]
    mass: 39.098300
    reduced_to: 93
  - symbol: Sr # 97
    coordinates: [  0.001008710000000,  0.375000000000000,  0.196082000000000 ]
    mass: 87.620000
    reduced_to: 97
  - symbol: Sr # 98
    coordinates: [  0.501008710000000,  0.375000000000000,  0.196082000000000 ]
    mass: 87.620000
    reduced_to: 97
  - symbol: Sr # 99
    coordinates: [  0.001008710000000,  0.875000000000000,  0.196082000000000 ]
    mass: 87.620000
    reduced_to: 97
  - symbol: Sr # 100
    coordinates: [  0.501008710000000,  0.875000000000000,  0.196082000000000 ]
    mass: 87.620000
    reduced_to: 97
  - symbol: Sr # 101
    coordinates: [  0.251008710000000,  0.375000000000000,  0.303918000000000 ]
    mass: 87.620000
    reduced_to: 101
  - symbol: Sr # 102
    coordinates: [  0.751008710000000,  0.375000000000000,  0.303918000000000 ]
    mass: 87.620000
    reduced_to: 101
  - symbol: Sr # 103
    coordinates: [  0.251008710000000,  0.875000000000000,  0.303918000000000 ]
    mass: 87.620000
    reduced_to: 101
  - symbol: Sr # 104
    coordinates: [  0.751008710000000,  0.875000000000000,  0.303918000000000 ]
    mass: 87.620000
    reduced_to: 101
  - symbol: Sr # 105
    coordinates: [  0.248991290000000,  0.125000000000000,  0.696082000000000 ]
    mass: 87.620000
    reduced_to: 105
  - symbol: Sr # 106
    coordinates: [  0.748991290000000,  0.125000000000000,  0.696082000000000 ]
    mass: 87.620000
    reduced_to: 105
  - symbol: Sr # 107
    coordinates: [  0.248991290000000,  0.625000000000000,  0.696082000000000 ]
    mass: 87.620000
    reduced_to: 105
  - symbol: Sr # 108
    coordinates: [  0.748991290000000,  0.625000000000000,  0.696082000000000 ]
    mass: 87.620000
    reduced_to: 105
  - symbol: Sr # 109
    coordinates: [  0.498991290000000,  0.125000000000000,  0.803918000000000 ]
    mass: 87.620000
    reduced_to: 109
  - symbol: Sr # 110
    coordinates: [  0.998991290000000,  0.125000000000000,  0.803918000000000 ]
    mass: 87.620000
    reduced_to: 109
  - symbol: Sr # 111
    coordinates: [  0.498991290000000,  0.625000000000000,  0.803918000000000 ]
    mass: 87.620000
    reduced_to: 109
  - symbol: Sr # 112
    coordinates: [  0.998991290000000,  0.625000000000000,  0.803918000000000 ]
    mass: 87.620000
    reduced_to: 109
