# epsilon and Z* of atoms 1 2 5 7 9 10 11 12 14 15
  12.86908429    0.00000000    0.38183397    0.00000000   14.19135511    0.00000000    0.38181753    0.00000000   15.57028323 
   4.42569964    0.05881136   -0.33226415    0.25424221    4.87375446   -0.03689557    0.14166641    0.47521906    5.06503529 
   4.43405346   -0.05844752   -0.33355320   -0.25441774    4.87357851    0.03747905    0.14223744   -0.47816922    5.06529318 
   1.57943732   -0.52447368    0.18198171   -1.13847615    1.78684999   -0.85609009   -0.61880619   -0.48289418    1.80623649 
   1.57899471    0.52350134    0.18028819    1.13868557    1.78662194    0.85643860   -0.61832702    0.48415275    1.80741768 
  -1.64057746    0.23722133    0.90069407   -0.54506748   -2.96419726    0.07530645    1.14734865    0.04498906   -2.46060438 
  -2.21547947   -0.70264990   -0.06575389   -0.88980929   -2.06292423    0.03962765   -0.35362689   -0.14926848   -1.49101761 
  -2.15197086   -0.77541218   -0.68229970   -0.59257911   -1.63285202    0.17038346   -0.31747013    0.15185064   -2.92177313 
  -2.21441359    0.70279140   -0.06717488    0.88925272   -2.06316073   -0.03921851   -0.35266175    0.14974970   -1.49022876 
  -1.64311462    0.23939217    0.89992274   -0.54507028   -2.96393347    0.07477443    1.14733999    0.04568013   -2.45972884 
  -2.15262913   -0.77522143   -0.68184087   -0.59283184   -1.63373717    0.17052491   -0.31770050    0.15150765   -2.92062990 
