natom:   80
displacements:
- atom:    1
  displacement:
    [   0.0099998995408238,  0.0000000000000000,  0.0000448238042902 ]
- atom:    1
  displacement:
    [  -0.0099998995408238,  0.0000000000000000, -0.0000448238042902 ]
- atom:    1
  displacement:
    [   0.0000000000000000,  0.0100000000000000,  0.0000000000000000 ]
- atom:    1
  displacement:
    [   0.0000000000000000, -0.0100000000000000,  0.0000000000000000 ]
- atom:    1
  displacement:
    [  -0.0057510924167553,  0.0000000000000000,  0.0081807662241345 ]
- atom:    1
  displacement:
    [   0.0057510924167553,  0.0000000000000000, -0.0081807662241345 ]
- atom:    5
  displacement:
    [   0.0099998995408238,  0.0000000000000000,  0.0000448238042902 ]
- atom:    5
  displacement:
    [  -0.0099998995408238,  0.0000000000000000, -0.0000448238042902 ]
- atom:    5
  displacement:
    [   0.0000000000000000,  0.0100000000000000,  0.0000000000000000 ]
- atom:    5
  displacement:
    [   0.0000000000000000, -0.0100000000000000,  0.0000000000000000 ]
- atom:    5
  displacement:
    [  -0.0057510924167553,  0.0000000000000000,  0.0081807662241345 ]
- atom:    5
  displacement:
    [   0.0057510924167553,  0.0000000000000000, -0.0081807662241345 ]
- atom:   17
  displacement:
    [   0.0099998995408238,  0.0000000000000000,  0.0000448238042902 ]
- atom:   17
  displacement:
    [  -0.0099998995408238,  0.0000000000000000, -0.0000448238042902 ]
- atom:   17
  displacement:
    [   0.0000000000000000,  0.0100000000000000,  0.0000000000000000 ]
- atom:   17
  displacement:
    [   0.0000000000000000, -0.0100000000000000,  0.0000000000000000 ]
- atom:   17
  displacement:
    [  -0.0057510924167553,  0.0000000000000000,  0.0081807662241345 ]
- atom:   17
  displacement:
    [   0.0057510924167553,  0.0000000000000000, -0.0081807662241345 ]
- atom:   25
  displacement:
    [   0.0099998995408238,  0.0000000000000000,  0.0000448238042902 ]
- atom:   25
  displacement:
    [  -0.0099998995408238,  0.0000000000000000, -0.0000448238042902 ]
- atom:   25
  displacement:
    [   0.0000000000000000,  0.0100000000000000,  0.0000000000000000 ]
- atom:   25
  displacement:
    [   0.0000000000000000, -0.0100000000000000,  0.0000000000000000 ]
- atom:   25
  displacement:
    [  -0.0057510924167553,  0.0000000000000000,  0.0081807662241345 ]
- atom:   25
  displacement:
    [   0.0057510924167553,  0.0000000000000000, -0.0081807662241345 ]
- atom:   33
  displacement:
    [   0.0099998995408238,  0.0000000000000000,  0.0000448238042902 ]
- atom:   33
  displacement:
    [  -0.0099998995408238,  0.0000000000000000, -0.0000448238042902 ]
- atom:   33
  displacement:
    [   0.0000000000000000,  0.0100000000000000,  0.0000000000000000 ]
- atom:   33
  displacement:
    [   0.0000000000000000, -0.0100000000000000,  0.0000000000000000 ]
- atom:   33
  displacement:
    [  -0.0057510924167553,  0.0000000000000000,  0.0081807662241345 ]
- atom:   33
  displacement:
    [   0.0057510924167553,  0.0000000000000000, -0.0081807662241345 ]
- atom:   37
  displacement:
    [   0.0099998995408238,  0.0000000000000000,  0.0000448238042902 ]
- atom:   37
  displacement:
    [  -0.0099998995408238,  0.0000000000000000, -0.0000448238042902 ]
- atom:   37
  displacement:
    [   0.0000000000000000,  0.0100000000000000,  0.0000000000000000 ]
- atom:   37
  displacement:
    [   0.0000000000000000, -0.0100000000000000,  0.0000000000000000 ]
- atom:   37
  displacement:
    [  -0.0057510924167553,  0.0000000000000000,  0.0081807662241345 ]
- atom:   37
  displacement:
    [   0.0057510924167553,  0.0000000000000000, -0.0081807662241345 ]
- atom:   41
  displacement:
    [   0.0099998995408238,  0.0000000000000000,  0.0000448238042902 ]
- atom:   41
  displacement:
    [  -0.0099998995408238,  0.0000000000000000, -0.0000448238042902 ]
- atom:   41
  displacement:
    [   0.0000000000000000,  0.0100000000000000,  0.0000000000000000 ]
- atom:   41
  displacement:
    [   0.0000000000000000, -0.0100000000000000,  0.0000000000000000 ]
- atom:   41
  displacement:
    [  -0.0057510924167553,  0.0000000000000000,  0.0081807662241345 ]
- atom:   41
  displacement:
    [   0.0057510924167553,  0.0000000000000000, -0.0081807662241345 ]
- atom:   45
  displacement:
    [   0.0099998995408238,  0.0000000000000000,  0.0000448238042902 ]
- atom:   45
  displacement:
    [  -0.0099998995408238,  0.0000000000000000, -0.0000448238042902 ]
- atom:   45
  displacement:
    [   0.0000000000000000,  0.0100000000000000,  0.0000000000000000 ]
- atom:   45
  displacement:
    [   0.0000000000000000, -0.0100000000000000,  0.0000000000000000 ]
- atom:   45
  displacement:
    [  -0.0057510924167553,  0.0000000000000000,  0.0081807662241345 ]
- atom:   45
  displacement:
    [   0.0057510924167553,  0.0000000000000000, -0.0081807662241345 ]
- atom:   53
  displacement:
    [   0.0099998995408238,  0.0000000000000000,  0.0000448238042902 ]
- atom:   53
  displacement:
    [  -0.0099998995408238,  0.0000000000000000, -0.0000448238042902 ]
- atom:   53
  displacement:
    [   0.0000000000000000,  0.0100000000000000,  0.0000000000000000 ]
- atom:   53
  displacement:
    [   0.0000000000000000, -0.0100000000000000,  0.0000000000000000 ]
- atom:   53
  displacement:
    [  -0.0057510924167553,  0.0000000000000000,  0.0081807662241345 ]
- atom:   53
  displacement:
    [   0.0057510924167553,  0.0000000000000000, -0.0081807662241345 ]
- atom:   57
  displacement:
    [   0.0099998995408238,  0.0000000000000000,  0.0000448238042902 ]
- atom:   57
  displacement:
    [  -0.0099998995408238,  0.0000000000000000, -0.0000448238042902 ]
- atom:   57
  displacement:
    [   0.0000000000000000,  0.0100000000000000,  0.0000000000000000 ]
- atom:   57
  displacement:
    [   0.0000000000000000, -0.0100000000000000,  0.0000000000000000 ]
- atom:   57
  displacement:
    [  -0.0057510924167553,  0.0000000000000000,  0.0081807662241345 ]
- atom:   57
  displacement:
    [   0.0057510924167553,  0.0000000000000000, -0.0081807662241345 ]
lattice:
- [    13.6358184999999992,     0.0000000000000000,     0.0611215400000000 ] # a
- [     0.0000000000000000,    15.2329868600000005,     0.0000000000000000 ] # b
- [    -6.6041411300000004,     0.0000000000000000,     9.3942038799999992 ] # c
atoms:
- symbol: Sn # 1
  position: [  0.1000367400000000,  0.0667222250000000,  0.2302821500000000 ]
  mass: 118.710000
- symbol: Sn # 2
  position: [  0.6000367400000000,  0.0667222250000000,  0.2302821500000000 ]
  mass: 118.710000
- symbol: Sn # 3
  position: [  0.1000367400000000,  0.5667222250000000,  0.2302821500000000 ]
  mass: 118.710000
- symbol: Sn # 4
  position: [  0.6000367400000000,  0.5667222250000000,  0.2302821500000000 ]
  mass: 118.710000
- symbol: Sn # 5
  position: [  0.3956052900000000,  0.3167297150000000,  0.2587293200000000 ]
  mass: 118.710000
- symbol: Sn # 6
  position: [  0.8956052900000000,  0.3167297150000000,  0.2587293200000000 ]
  mass: 118.710000
- symbol: Sn # 7
  position: [  0.3956052900000000,  0.8167297150000000,  0.2587293200000000 ]
  mass: 118.710000
- symbol: Sn # 8
  position: [  0.8956052900000000,  0.8167297150000000,  0.2587293200000000 ]
  mass: 118.710000
- symbol: Sn # 9
  position: [  0.1000367400000000,  0.4332777750000000,  0.7302821500000000 ]
  mass: 118.710000
- symbol: Sn # 10
  position: [  0.6000367400000000,  0.4332777750000000,  0.7302821500000000 ]
  mass: 118.710000
- symbol: Sn # 11
  position: [  0.1000367400000000,  0.9332777750000000,  0.7302821500000000 ]
  mass: 118.710000
- symbol: Sn # 12
  position: [  0.6000367400000000,  0.9332777750000000,  0.7302821500000000 ]
  mass: 118.710000
- symbol: Sn # 13
  position: [  0.3956052900000000,  0.1832702850000000,  0.7587293200000000 ]
  mass: 118.710000
- symbol: Sn # 14
  position: [  0.8956052900000000,  0.1832702850000000,  0.7587293200000000 ]
  mass: 118.710000
- symbol: Sn # 15
  position: [  0.3956052900000000,  0.6832702850000000,  0.7587293200000000 ]
  mass: 118.710000
- symbol: Sn # 16
  position: [  0.8956052900000000,  0.6832702850000000,  0.7587293200000000 ]
  mass: 118.710000
- symbol: P  # 17
  position: [  0.0627787150000000,  0.1783278650000000,  0.5598709800000000 ]
  mass: 30.973762
- symbol: P  # 18
  position: [  0.5627787150000000,  0.1783278650000000,  0.5598709800000000 ]
  mass: 30.973762
- symbol: P  # 19
  position: [  0.0627787150000000,  0.6783278650000000,  0.5598709800000000 ]
  mass: 30.973762
- symbol: P  # 20
  position: [  0.5627787150000000,  0.6783278650000000,  0.5598709800000000 ]
  mass: 30.973762
- symbol: P  # 21
  position: [  0.0627787150000000,  0.3216721350000000,  0.0598709800000000 ]
  mass: 30.973762
- symbol: P  # 22
  position: [  0.5627787150000000,  0.3216721350000000,  0.0598709800000000 ]
  mass: 30.973762
- symbol: P  # 23
  position: [  0.0627787150000000,  0.8216721350000000,  0.0598709800000000 ]
  mass: 30.973762
- symbol: P  # 24
  position: [  0.5627787150000000,  0.8216721350000000,  0.0598709800000000 ]
  mass: 30.973762
- symbol: P  # 25
  position: [  0.4328747100000000,  0.4283240100000000,  0.9291742600000000 ]
  mass: 30.973762
- symbol: P  # 26
  position: [  0.9328747100000000,  0.4283240100000000,  0.9291742600000000 ]
  mass: 30.973762
- symbol: P  # 27
  position: [  0.4328747100000000,  0.9283240100000000,  0.9291742600000000 ]
  mass: 30.973762
- symbol: P  # 28
  position: [  0.9328747100000000,  0.9283240100000000,  0.9291742600000000 ]
  mass: 30.973762
- symbol: P  # 29
  position: [  0.4328747100000000,  0.0716759900000000,  0.4291742600000000 ]
  mass: 30.973762
- symbol: P  # 30
  position: [  0.9328747100000000,  0.0716759900000000,  0.4291742600000000 ]
  mass: 30.973762
- symbol: P  # 31
  position: [  0.4328747100000000,  0.5716759900000000,  0.4291742600000000 ]
  mass: 30.973762
- symbol: P  # 32
  position: [  0.9328747100000000,  0.5716759900000000,  0.4291742600000000 ]
  mass: 30.973762
- symbol: Se # 33
  position: [  0.0535884650000000,  0.0295727100000000,  0.9393203800000000 ]
  mass: 78.960000
- symbol: Se # 34
  position: [  0.5535884650000000,  0.0295727100000000,  0.9393203800000000 ]
  mass: 78.960000
- symbol: Se # 35
  position: [  0.0535884650000000,  0.5295727099999999,  0.9393203800000000 ]
  mass: 78.960000
- symbol: Se # 36
  position: [  0.5535884650000000,  0.5295727099999999,  0.9393203800000000 ]
  mass: 78.960000
- symbol: Se # 37
  position: [  0.3041753950000000,  0.1312308850000000,  0.2192974600000000 ]
  mass: 78.960000
- symbol: Se # 38
  position: [  0.8041753950000000,  0.1312308850000000,  0.2192974600000000 ]
  mass: 78.960000
- symbol: Se # 39
  position: [  0.3041753950000000,  0.6312308850000000,  0.2192974600000000 ]
  mass: 78.960000
- symbol: Se # 40
  position: [  0.8041753950000000,  0.6312308850000000,  0.2192974600000000 ]
  mass: 78.960000
- symbol: Se # 41
  position: [  0.1393848600000000,  0.2735079650000000,  0.9471087000000000 ]
  mass: 78.960000
- symbol: Se # 42
  position: [  0.6393848600000001,  0.2735079650000000,  0.9471087000000000 ]
  mass: 78.960000
- symbol: Se # 43
  position: [  0.1393848600000000,  0.7735079650000001,  0.9471087000000000 ]
  mass: 78.960000
- symbol: Se # 44
  position: [  0.6393848600000001,  0.7735079650000001,  0.9471087000000000 ]
  mass: 78.960000
- symbol: Se # 45
  position: [  0.1914715000000000,  0.3812301350000000,  0.2697536000000000 ]
  mass: 78.960000
- symbol: Se # 46
  position: [  0.6914715000000000,  0.3812301350000000,  0.2697536000000000 ]
  mass: 78.960000
- symbol: Se # 47
  position: [  0.1914715000000000,  0.8812301350000000,  0.2697536000000000 ]
  mass: 78.960000
- symbol: Se # 48
  position: [  0.6914715000000000,  0.8812301350000000,  0.2697536000000000 ]
  mass: 78.960000
- symbol: Se # 49
  position: [  0.0535884650000000,  0.4704272900000000,  0.4393203800000000 ]
  mass: 78.960000
- symbol: Se # 50
  position: [  0.5535884650000000,  0.4704272900000000,  0.4393203800000000 ]
  mass: 78.960000
- symbol: Se # 51
  position: [  0.0535884650000000,  0.9704272899999999,  0.4393203800000000 ]
  mass: 78.960000
- symbol: Se # 52
  position: [  0.5535884650000000,  0.9704272899999999,  0.4393203800000000 ]
  mass: 78.960000
- symbol: Se # 53
  position: [  0.4420597750000000,  0.2204257950000000,  0.0497283700000000 ]
  mass: 78.960000
- symbol: Se # 54
  position: [  0.9420597749999999,  0.2204257950000000,  0.0497283700000000 ]
  mass: 78.960000
- symbol: Se # 55
  position: [  0.4420597750000000,  0.7204257950000000,  0.0497283700000000 ]
  mass: 78.960000
- symbol: Se # 56
  position: [  0.9420597749999999,  0.7204257950000000,  0.0497283700000000 ]
  mass: 78.960000
- symbol: Se # 57
  position: [  0.3562745650000000,  0.4765109050000000,  0.0419347100000000 ]
  mass: 78.960000
- symbol: Se # 58
  position: [  0.8562745650000000,  0.4765109050000000,  0.0419347100000000 ]
  mass: 78.960000
- symbol: Se # 59
  position: [  0.3562745650000000,  0.9765109050000000,  0.0419347100000000 ]
  mass: 78.960000
- symbol: Se # 60
  position: [  0.8562745650000000,  0.9765109050000000,  0.0419347100000000 ]
  mass: 78.960000
- symbol: Se # 61
  position: [  0.3041753950000000,  0.3687691150000000,  0.7192974600000001 ]
  mass: 78.960000
- symbol: Se # 62
  position: [  0.8041753950000000,  0.3687691150000000,  0.7192974600000001 ]
  mass: 78.960000
- symbol: Se # 63
  position: [  0.3041753950000000,  0.8687691150000000,  0.7192974600000001 ]
  mass: 78.960000
- symbol: Se # 64
  position: [  0.8041753950000000,  0.8687691150000000,  0.7192974600000001 ]
  mass: 78.960000
- symbol: Se # 65
  position: [  0.3562745650000000,  0.0234890950000000,  0.5419347100000000 ]
  mass: 78.960000
- symbol: Se # 66
  position: [  0.8562745650000000,  0.0234890950000000,  0.5419347100000000 ]
  mass: 78.960000
- symbol: Se # 67
  position: [  0.3562745650000000,  0.5234890950000000,  0.5419347100000000 ]
  mass: 78.960000
- symbol: Se # 68
  position: [  0.8562745650000000,  0.5234890950000000,  0.5419347100000000 ]
  mass: 78.960000
- symbol: Se # 69
  position: [  0.1393848600000000,  0.2264920350000000,  0.4471087000000000 ]
  mass: 78.960000
- symbol: Se # 70
  position: [  0.6393848600000001,  0.2264920350000000,  0.4471087000000000 ]
  mass: 78.960000
- symbol: Se # 71
  position: [  0.1393848600000000,  0.7264920350000000,  0.4471087000000000 ]
  mass: 78.960000
- symbol: Se # 72
  position: [  0.6393848600000001,  0.7264920350000000,  0.4471087000000000 ]
  mass: 78.960000
- symbol: Se # 73
  position: [  0.4420597750000000,  0.2795742050000000,  0.5497283700000000 ]
  mass: 78.960000
- symbol: Se # 74
  position: [  0.9420597749999999,  0.2795742050000000,  0.5497283700000000 ]
  mass: 78.960000
- symbol: Se # 75
  position: [  0.4420597750000000,  0.7795742050000001,  0.5497283700000000 ]
  mass: 78.960000
- symbol: Se # 76
  position: [  0.9420597749999999,  0.7795742050000001,  0.5497283700000000 ]
  mass: 78.960000
- symbol: Se # 77
  position: [  0.1914715000000000,  0.1187698650000000,  0.7697536000000000 ]
  mass: 78.960000
- symbol: Se # 78
  position: [  0.6914715000000000,  0.1187698650000000,  0.7697536000000000 ]
  mass: 78.960000
- symbol: Se # 79
  position: [  0.1914715000000000,  0.6187698650000000,  0.7697536000000000 ]
  mass: 78.960000
- symbol: Se # 80
  position: [  0.6914715000000000,  0.6187698650000000,  0.7697536000000000 ]
  mass: 78.960000