80   
60   

1    
  0.0099998995408238   0.0000000000000000   0.0000448238042902
  -0.0195492200   -0.0083330200   -0.0122297200
   0.0064677000   -0.0080789900   -0.0097107300
   0.0035661800   -0.0084777400   -0.0098543800
   0.0042560300   -0.0084554700   -0.0099622600
  -0.0031858400   -0.0029738100    0.0104642000
  -0.0033734400   -0.0102300500    0.0102658300
  -0.0031946100   -0.0095169600    0.0096565000
  -0.0033843200   -0.0052797300    0.0098768300
   0.0037331600    0.0083262100   -0.0103285400
   0.0036784900    0.0087205100   -0.0093684100
   0.0063108700    0.0085865500   -0.0145421400
   0.0063845200    0.0076449400   -0.0053868100
  -0.0051501100    0.0093696700    0.0099623700
  -0.0043272600    0.0099976700    0.0099105600
  -0.0039845600    0.0086439400    0.0101081600
  -0.0033526500    0.0083516000    0.0097284900
   0.0166852800   -0.0139820400   -0.0129423400
   0.0155982200   -0.0122530300   -0.0106806700
   0.0147020900   -0.0133376200   -0.0112768000
   0.0153205900   -0.0137117000   -0.0113713100
   0.0114527800    0.0133445600   -0.0127864900
   0.0155642900    0.0141376700   -0.0106703700
   0.0154153400    0.0126778700   -0.0157728400
   0.0154742400    0.0137902000   -0.0110666000
  -0.0154544200   -0.0138007600    0.0113554900
  -0.0148821300   -0.0137289600    0.0121847400
  -0.0156755300   -0.0134446000    0.0116630800
  -0.0271217700   -0.0139344800    0.0168239800
  -0.0107763800    0.0092321400    0.0213162100
  -0.0110550900    0.0113255400    0.0103283100
  -0.0165198400    0.0139226600    0.0117368900
  -0.0154126100    0.0136858200    0.0112017900
   0.0015954100    0.0144493400    0.0117728200
  -0.0024274300    0.0129324900    0.0128217100
  -0.0022462400    0.0136203700    0.0127745000
  -0.0024405800    0.0130646100    0.0132187600
   0.0035969800    0.0077238600   -0.0089442800
  -0.0068068800    0.0055304300   -0.0029723100
  -0.0043771900    0.0054200700   -0.0034422700
  -0.0047873200    0.0044868800   -0.0031400800
   0.0039234400    0.0129387300    0.0014062100
   0.0028394600    0.0134440300    0.0013395000
   0.0032068100    0.0129367900    0.0022658700
   0.0027432300    0.0133138800    0.0009088500
   0.0056451900    0.0047311000    0.0029465300
   0.0046607500    0.0049406200    0.0028006400
   0.0070114600    0.0021004800    0.0054116800
   0.0049539700    0.0049868800    0.0029119200
  -0.0024518900   -0.0130086300    0.0132036000
  -0.0021939000   -0.0142185400    0.0124135700
  -0.0037473600   -0.0117393500    0.0134476200
  -0.0030030400   -0.0118873700    0.0118357800
   0.0032900300   -0.0131256600   -0.0140600800
   0.0078759100   -0.0152174700   -0.0098513600
   0.0029271000   -0.0127538200   -0.0132592600
   0.0034361500   -0.0121581900   -0.0125338300
  -0.0042308100   -0.0144931000   -0.0004533200
  -0.0037864700   -0.0139885500   -0.0013128400
  -0.0036495000   -0.0151078800   -0.0016922100
   0.0024986200   -0.0143011300   -0.0022063600
  -0.0044349800   -0.0057383800   -0.0035702700
  -0.0043969200   -0.0051953500   -0.0035068000
  -0.0047505200   -0.0047887500   -0.0032116700
  -0.0032224400   -0.0048332700   -0.0044953400
  -0.0059159200    0.0152265900   -0.0038112700
  -0.0053716600    0.0142088500   -0.0002846600
  -0.0036570400    0.0140275700   -0.0012042500
  -0.0037982700    0.0141668400   -0.0009457000
   0.0026702700   -0.0125959200    0.0025040800
   0.0030213700   -0.0137898400    0.0008285500
   0.0032732900   -0.0141218000    0.0017964300
   0.0031603200   -0.0132501900    0.0015489500
   0.0028783700    0.0122342200   -0.0139676100
   0.0027554900    0.0133423600   -0.0128620900
   0.0030989500    0.0121848200   -0.0135428900
   0.0029087600    0.0122104200   -0.0125737300
   0.0051368700   -0.0047141100    0.0033045400
   0.0044532500   -0.0056262200    0.0022754500
   0.0051427100   -0.0046885900    0.0026414000
   0.0047822200   -0.0050987200    0.0028325200

1    
 -0.0099998995408238   0.0000000000000000  -0.0000448238042902
   0.0268714400   -0.0086358800   -0.0073119800
   0.0010138400   -0.0088600200   -0.0100248400
   0.0039276300   -0.0084535200   -0.0098807600
   0.0032408400   -0.0084712600   -0.0097728000
  -0.0049089900   -0.0140721100    0.0094359700
  -0.0047143900   -0.0068524700    0.0096313700
  -0.0049251500   -0.0075838700    0.0102401300
  -0.0047279800   -0.0118179800    0.0100214700
   0.0037615800    0.0086008500   -0.0094070900
   0.0038176900    0.0082111700   -0.0103608100
   0.0011645700    0.0083446300   -0.0051851000
   0.0011054800    0.0092902700   -0.0143250800
  -0.0029615800    0.0077233000    0.0099300400
  -0.0037816200    0.0071011400    0.0099977200
  -0.0041209500    0.0084469200    0.0097901000
  -0.0047512100    0.0087337000    0.0101700800
   0.0138233100   -0.0135627100   -0.0094919200
   0.0148820700   -0.0153108600   -0.0117462800
   0.0157701400   -0.0142377500   -0.0111496100
   0.0151526900   -0.0138638200   -0.0110553500
   0.0189802200    0.0142036900   -0.0096400000
   0.0149127500    0.0134458600   -0.0117557300
   0.0150737400    0.0149026000   -0.0066346800
   0.0150031000    0.0137820200   -0.0113621200
  -0.0160026300   -0.0134803400    0.0119158400
  -0.0165747900   -0.0135541200    0.0110886800
  -0.0157798800   -0.0138353200    0.0116046000
  -0.0043279800   -0.0133262100    0.0064853500
  -0.0206327400    0.0180162200    0.0020582600
  -0.0204404600    0.0159388700    0.0129989200
  -0.0149484900    0.0133619800    0.0115350100
  -0.0160467100    0.0135945900    0.0120712100
  -0.0062463400    0.0117145200    0.0141955700
  -0.0022778100    0.0132430100    0.0132273400
  -0.0024557000    0.0125653900    0.0132713100
  -0.0022619700    0.0131123000    0.0128340700
  -0.0120128700    0.0028487300    0.0021600000
  -0.0020544600    0.0048723400   -0.0037593200
  -0.0045210800    0.0049904900   -0.0032803600
  -0.0041136200    0.0059243300   -0.0035830000
   0.0025879600    0.0137984100    0.0014602900
   0.0036671500    0.0132937700    0.0015293200
   0.0033013900    0.0138014500    0.0005978400
   0.0037589600    0.0134239500    0.0019598900
   0.0044192300    0.0049174500    0.0026493300
   0.0053958600    0.0047054000    0.0027932500
   0.0030478700    0.0075120300    0.0001788000
   0.0051029400    0.0046638000    0.0026855300
  -0.0022531100   -0.0131708100    0.0128469500
  -0.0025085600   -0.0119700400    0.0136317800
  -0.0010185400   -0.0144879300    0.0126746000
  -0.0016999000   -0.0142794000    0.0142000500
   0.0029187500   -0.0124232800   -0.0125450200
  -0.0016495300   -0.0102520000   -0.0168005700
   0.0032836000   -0.0127911400   -0.0133468000
   0.0027716600   -0.0133861400   -0.0140697800
  -0.0033643200   -0.0137516000   -0.0017482400
  -0.0038059600   -0.0142516600   -0.0008957200
  -0.0039378700   -0.0131309600   -0.0005093900
  -0.0102867800   -0.0140679800   -0.0001815300
  -0.0044695300   -0.0046766000   -0.0031574000
  -0.0045050600   -0.0052089500   -0.0032185000
  -0.0041468400   -0.0056180100   -0.0035108200
  -0.0056748100   -0.0055707500   -0.0022326400
  -0.0016580100    0.0130122100    0.0016090300
  -0.0022235100    0.0140376000   -0.0019290800
  -0.0039318700    0.0142137800   -0.0010039700
  -0.0037924800    0.0140741400   -0.0012619800
   0.0037925300   -0.0141368600    0.0003950100
   0.0034835200   -0.0129491200    0.0020373600
   0.0032341800   -0.0126136400    0.0010691400
   0.0033453200   -0.0134870300    0.0013199600
   0.0033320800    0.0133049500   -0.0126426700
   0.0034422500    0.0121986500   -0.0137398200
   0.0031155600    0.0133558500   -0.0130669300
   0.0033023300    0.0133331600   -0.0140331100
   0.0049198100   -0.0049364100    0.0022877000
   0.0055994600   -0.0040251000    0.0033154900
   0.0049164800   -0.0049590500    0.0029528000
   0.0052761300   -0.0045528000    0.0027636100

1    
  0.0000000000000000   0.0100000000000000   0.0000000000000000
   0.0038877300   -0.0329359900   -0.0093997500
   0.0041365600   -0.0096288800   -0.0097696100
   0.0037355700   -0.0060117000   -0.0099068300
   0.0037561400   -0.0074046700   -0.0097378100
  -0.0030841000   -0.0071094600    0.0104876600
  -0.0073337600   -0.0066916900    0.0106060600
  -0.0095850700   -0.0071083500    0.0096239600
  -0.0023680800   -0.0066977500    0.0095588900
   0.0038868000    0.0098545700   -0.0100886800
   0.0034955500    0.0095515100   -0.0100509200
   0.0036255900    0.0081123600   -0.0115308800
   0.0045567900    0.0081500200   -0.0077043100
  -0.0032306100    0.0070998300    0.0106504800
  -0.0025888800    0.0047488000    0.0072298300
  -0.0039542000    0.0092326600    0.0099870500
  -0.0042435500    0.0102649000    0.0099444900
   0.0099376800   -0.0180763800   -0.0086520600
   0.0154074600   -0.0132568000   -0.0112893600
   0.0152045300   -0.0136759400   -0.0112346500
   0.0152659700   -0.0132067300   -0.0110334600
   0.0228969000    0.0206025400   -0.0103647500
   0.0151820100    0.0137484400   -0.0109286900
   0.0179223400    0.0186557300   -0.0012480900
   0.0153599700    0.0135050600   -0.0111778000
  -0.0156065700   -0.0134717800    0.0116086100
  -0.0164814000   -0.0124685200    0.0108498400
  -0.0157301400   -0.0133700400    0.0114807200
  -0.0178937000   -0.0118597900    0.0170978800
  -0.0168109200    0.0094845600    0.0179501200
  -0.0135359400    0.0092199100    0.0124110900
  -0.0157504700    0.0143999300    0.0111948200
  -0.0163756400    0.0140761600    0.0115426900
  -0.0024893600    0.0156459500    0.0125422900
  -0.0025039600    0.0134288400    0.0129922000
  -0.0025467400    0.0111108200    0.0136560400
  -0.0024707200    0.0124095000    0.0127978900
  -0.0039426900    0.0081095800   -0.0069994700
  -0.0040944600    0.0061703300   -0.0033974200
  -0.0045203000    0.0048139600   -0.0034115200
  -0.0047215100    0.0045376400   -0.0033032200
   0.0023578500    0.0128907100    0.0021174600
   0.0030201700    0.0131268100    0.0011628600
   0.0034495500    0.0123942900   -0.0000227000
   0.0029748600    0.0133728200    0.0013851000
   0.0046020300    0.0033138900    0.0025011100
   0.0059620100    0.0044774300    0.0029476100
   0.0035287800    0.0092862000   -0.0042336400
   0.0047308000    0.0051289800    0.0027734900
  -0.0021756300   -0.0136048000    0.0131429200
  -0.0022183400   -0.0138301000    0.0130094400
  -0.0025094400   -0.0094998700    0.0118965800
  -0.0025997600   -0.0115519900    0.0116650300
   0.0031611900   -0.0126856400   -0.0136675000
  -0.0031666000   -0.0127797300   -0.0163051700
   0.0035515400   -0.0131313600   -0.0138363200
   0.0024175600   -0.0141587200   -0.0141313000
  -0.0038811600   -0.0144409500   -0.0011578000
  -0.0038768500   -0.0148233200   -0.0009389600
  -0.0037915100   -0.0142753200   -0.0012399400
  -0.0018207000   -0.0121175800   -0.0022039600
  -0.0042681500   -0.0044934400   -0.0029893400
  -0.0045025000   -0.0056076400   -0.0025685000
  -0.0043587900   -0.0050155300   -0.0032189600
  -0.0043271100   -0.0056923400   -0.0047792600
  -0.0031631300    0.0158330300   -0.0022723800
  -0.0047802800    0.0156445900   -0.0005881900
  -0.0038092400    0.0135610500   -0.0012362300
  -0.0035715700    0.0137750100   -0.0012599600
   0.0069865500   -0.0097218300    0.0002882600
   0.0031487200   -0.0130437000    0.0010877800
   0.0039248500   -0.0126691300    0.0006400000
   0.0038104500   -0.0144640300    0.0023641800
   0.0028803000    0.0128853500   -0.0135837600
   0.0046238400    0.0133473000   -0.0138788700
   0.0036033100    0.0120249600   -0.0137255300
   0.0029972500    0.0122641900   -0.0130518600
   0.0057738500   -0.0036014500    0.0023160000
   0.0053074300   -0.0051621800    0.0030689800
   0.0048139900   -0.0055695600    0.0027968900
   0.0047990600   -0.0053455500    0.0027431500

1    
  0.0000000000000000  -0.0100000000000000   0.0000000000000000
   0.0035707700    0.0162488900   -0.0100728200
   0.0033553800   -0.0072944400   -0.0099634700
   0.0037585300   -0.0109074600   -0.0098273800
   0.0037401400   -0.0095216600   -0.0099976200
  -0.0050143900   -0.0100022800    0.0094059600
  -0.0007898600   -0.0103837000    0.0092905500
   0.0015114200   -0.0100020600    0.0102787200
  -0.0057494100   -0.0103876200    0.0103375800
   0.0036102100    0.0070740400   -0.0096417900
   0.0040003700    0.0073760200   -0.0096828900
   0.0038524600    0.0088236700   -0.0081958400
   0.0029315100    0.0087871900   -0.0120251700
  -0.0048691300    0.0099796000    0.0092515000
  -0.0055084300    0.0123197800    0.0126589700
  -0.0041492000    0.0078627000    0.0099093800
  -0.0038631200    0.0068293000    0.0099510500
   0.0205097000   -0.0095292600   -0.0137600900
   0.0150702400   -0.0143250700   -0.0111387300
   0.0152675200   -0.0138955700   -0.0111929400
   0.0152053300   -0.0143696600   -0.0113926100
   0.0075943400    0.0070206200   -0.0120812000
   0.0152928200    0.0138280400   -0.0114989000
   0.0125447100    0.0088676700   -0.0212507500
   0.0151235700    0.0140733400   -0.0112499200
  -0.0158524700   -0.0138067600    0.0116675700
  -0.0149738100   -0.0148073700    0.0124196800
  -0.0157262400   -0.0139120200    0.0117857900
  -0.0135462200   -0.0153920900    0.0061358000
  -0.0146852900    0.0178055900    0.0053125600
  -0.0179122000    0.0180574300    0.0108449900
  -0.0157046800    0.0128791600    0.0120801900
  -0.0150827500    0.0132050800    0.0117272600
  -0.0022018300    0.0105010600    0.0134704300
  -0.0021968200    0.0127501900    0.0130601500
  -0.0021545000    0.0150671900    0.0123931200
  -0.0022304300    0.0137662400    0.0132525500
  -0.0049018900    0.0023345200    0.0002683200
  -0.0048024000    0.0042433400   -0.0033246300
  -0.0043792100    0.0055954300   -0.0033117100
  -0.0041778900    0.0058711400   -0.0034198000
   0.0041416200    0.0138472100    0.0007533300
   0.0034910500    0.0136102400    0.0017029100
   0.0030562600    0.0143460700    0.0029042200
   0.0035251400    0.0133612100    0.0014832300
   0.0054512600    0.0063249000    0.0030948900
   0.0041035300    0.0051690200    0.0026469400
   0.0066989800   -0.0000912600    0.0099247700
   0.0053312300    0.0045184300    0.0028231400
  -0.0025254400   -0.0125743400    0.0129080100
  -0.0024835700   -0.0123416000    0.0130439000
  -0.0022320400   -0.0167081700    0.0142068700
  -0.0020963300   -0.0146225100    0.0143817000
   0.0030509600   -0.0128567500   -0.0129344400
   0.0092980000   -0.0125684900   -0.0104499600
   0.0026544300   -0.0124131000   -0.0127639100
   0.0037959100   -0.0113882900   -0.0124682600
  -0.0037071100   -0.0137987300   -0.0010535700
  -0.0037145200   -0.0134178200   -0.0012684200
  -0.0038031500   -0.0139626400   -0.0009657200
  -0.0058233100   -0.0161722700   -0.0000543300
  -0.0046330200   -0.0059143800   -0.0037363100
  -0.0043995200   -0.0048002100   -0.0041522800
  -0.0045351300   -0.0053951900   -0.0035020100
  -0.0045698600   -0.0047299500   -0.0019533700
  -0.0044067200    0.0123943500    0.0000861100
  -0.0028054700    0.0125992500   -0.0016203700
  -0.0037798900    0.0146788700   -0.0009731400
  -0.0040183700    0.0144664000   -0.0009478500
  -0.0004699700   -0.0169055500    0.0026312300
   0.0033589400   -0.0136903600    0.0017825200
   0.0025859500   -0.0140734100    0.0022260100
   0.0026908100   -0.0122687400    0.0004915700
   0.0033323400    0.0126609000   -0.0130212100
   0.0015936500    0.0121997500   -0.0127293700
   0.0026086000    0.0135175300   -0.0128809200
   0.0032133300    0.0132734700   -0.0135493400
   0.0042904000   -0.0060390200    0.0032731100
   0.0047578300   -0.0044836900    0.0025336900
   0.0052445100   -0.0040788500    0.0027993200
   0.0052618700   -0.0043025000    0.0028534200

1    
 -0.0057510924167553   0.0000000000000000   0.0081807662241345
   0.0150940200   -0.0082573300   -0.0225315500
   0.0023001600   -0.0086075800   -0.0099579000
   0.0038661400   -0.0084863200   -0.0102053900
   0.0033764800   -0.0083594100   -0.0097162400
  -0.0047877100   -0.0114704900    0.0096312700
  -0.0044865900   -0.0072483500    0.0073809700
  -0.0041408000   -0.0084315700    0.0100949500
  -0.0041662200   -0.0109734400    0.0075978700
   0.0033748200    0.0087271600   -0.0090327100
   0.0041953500    0.0084691300   -0.0100865200
  -0.0015990300    0.0097557900   -0.0019983200
   0.0058884200    0.0071634600   -0.0090186100
  -0.0034133300    0.0086432800    0.0115901400
  -0.0039571200    0.0055034000    0.0136492400
  -0.0039592100    0.0085180000    0.0097388800
  -0.0046380600    0.0086484100    0.0103947300
   0.0113482700   -0.0151653400   -0.0073792800
   0.0152065000   -0.0147675400   -0.0104957900
   0.0157205700   -0.0141261400   -0.0112942100
   0.0152714800   -0.0137244800   -0.0111180100
   0.0130786200    0.0114202100   -0.0112028300
   0.0150652400    0.0135681500   -0.0115400600
   0.0136090900    0.0160126900   -0.0113198400
   0.0151077700    0.0137476100   -0.0114855000
  -0.0159406500   -0.0134723300    0.0121606900
  -0.0153473600   -0.0141157400    0.0112801500
  -0.0157975000   -0.0136861300    0.0114985900
  -0.0066508400   -0.0052390100    0.0142136200
  -0.0127163900    0.0182821800    0.0033793800
  -0.0223090900    0.0178810200    0.0112392900
  -0.0154029500    0.0134335200    0.0116333700
  -0.0160988200    0.0136176100    0.0120346600
  -0.0063622700    0.0100523200    0.0134030900
  -0.0022364000    0.0133599400    0.0127061200
  -0.0023290300    0.0134773800    0.0129036900
  -0.0024286400    0.0129031400    0.0127345400
  -0.0113137600    0.0023403600    0.0012308000
  -0.0028376500    0.0048160000   -0.0031296900
  -0.0044497900    0.0051923500   -0.0034132500
  -0.0041632700    0.0057052300   -0.0035798200
   0.0033422200    0.0140794600    0.0012060500
   0.0035351500    0.0131618600    0.0016640800
   0.0036152800    0.0134926700    0.0013860800
   0.0036856300    0.0133773900    0.0015904500
   0.0050837500    0.0052141500    0.0029419500
   0.0052065500    0.0047239400    0.0027702100
   0.0046870200    0.0050187800    0.0031829900
   0.0049487600    0.0048748500    0.0026495900
  -0.0020413100   -0.0129322300    0.0128738900
  -0.0024480600   -0.0124409700    0.0134255200
  -0.0001502300   -0.0152993300    0.0132959300
  -0.0026032500   -0.0136198300    0.0140422700
   0.0030849100   -0.0127497000   -0.0131692000
   0.0045054800   -0.0134431000   -0.0116118000
   0.0031602000   -0.0127102600   -0.0132307000
   0.0030169300   -0.0136271200   -0.0131867100
  -0.0035842300   -0.0139999800   -0.0017019800
  -0.0039904800   -0.0141558500   -0.0008207600
  -0.0042494100   -0.0136790100   -0.0010823300
  -0.0051564600   -0.0145025100    0.0004957300
  -0.0041947300   -0.0046895800   -0.0029936200
  -0.0046859500   -0.0042902700   -0.0033258200
  -0.0032192900   -0.0057802400   -0.0033110300
  -0.0071615400   -0.0062076100   -0.0038966300
  -0.0068174100    0.0138980200   -0.0004662000
  -0.0007579800    0.0135709800   -0.0025812600
  -0.0037756600    0.0143117600   -0.0009682700
  -0.0037831600    0.0139383600   -0.0012408900
   0.0057770800   -0.0129643400   -0.0000991900
   0.0029079000   -0.0133667100    0.0013110200
   0.0032356800   -0.0129330600    0.0014143100
   0.0031347600   -0.0135109700    0.0011065000
   0.0031777500    0.0130761500   -0.0132479600
   0.0045047400    0.0121199400   -0.0140445500
   0.0030500300    0.0126953900   -0.0133432800
   0.0031702800    0.0130931500   -0.0139112600
   0.0054279500   -0.0045832300    0.0018560500
   0.0053360300   -0.0046781800    0.0033560400
   0.0049087700   -0.0048573900    0.0028609700
   0.0051458600   -0.0047324800    0.0028132800

1    
  0.0057510924167553   0.0000000000000000  -0.0081807662241345
  -0.0077143100   -0.0086262600    0.0031613200
   0.0051796900   -0.0083180000   -0.0097810500
   0.0036346500   -0.0084405200   -0.0095313500
   0.0041158700   -0.0085661500   -0.0100176500
  -0.0033193500   -0.0056280300    0.0102641700
  -0.0036216600   -0.0098310900    0.0124980100
  -0.0039906400   -0.0086614900    0.0098052700
  -0.0039366300   -0.0061411600    0.0122669500
   0.0041200900    0.0082046500   -0.0106959100
   0.0033021400    0.0084619600   -0.0096469600
   0.0090866500    0.0071605000   -0.0177183800
   0.0016214900    0.0097709300   -0.0106871100
  -0.0046842000    0.0084461500    0.0083168500
  -0.0041667400    0.0116298100    0.0062467900
  -0.0041431000    0.0085703400    0.0101587800
  -0.0034695500    0.0084372600    0.0095082700
   0.0191137200   -0.0123937400   -0.0150141200
   0.0152694400   -0.0128038100   -0.0119330500
   0.0147624200   -0.0134547700   -0.0111306000
   0.0152018200   -0.0138522400   -0.0113086800
   0.0173403300    0.0161355000   -0.0112405200
   0.0154091500    0.0140077500   -0.0108936900
   0.0168864400    0.0115737800   -0.0110465700
   0.0153694300    0.0138256500   -0.0109460600
  -0.0155173900   -0.0138066600    0.0111177200
  -0.0160966000   -0.0131695900    0.0120034700
  -0.0156618100   -0.0135933000    0.0117753600
  -0.0249396900   -0.0221190800    0.0090754000
  -0.0187702500    0.0089983700    0.0198508800
  -0.0092341100    0.0094550500    0.0120383900
  -0.0160563700    0.0138501600    0.0116384000
  -0.0153642400    0.0136630800    0.0112420400
   0.0019111100    0.0160695600    0.0122655900
  -0.0024647000    0.0128180500    0.0133450800
  -0.0023711000    0.0127129100    0.0131415700
  -0.0022724800    0.0132732000    0.0133149100
   0.0026397100    0.0081549700   -0.0079516100
  -0.0060437800    0.0055841600   -0.0035861900
  -0.0044481400    0.0052150000   -0.0033077700
  -0.0047327100    0.0047105300   -0.0031452200
   0.0031695900    0.0126565800    0.0016568100
   0.0029750200    0.0135736100    0.0012056400
   0.0028961700    0.0132436100    0.0014749600
   0.0028194600    0.0133596000    0.0012800900
   0.0049783200    0.0044384700    0.0026562000
   0.0048586700    0.0049216400    0.0028258100
   0.0053797100    0.0046142900    0.0023732700
   0.0051094600    0.0047716800    0.0029461700
  -0.0026585800   -0.0132460300    0.0131761600
  -0.0022537000   -0.0137380700    0.0126252100
  -0.0046287500   -0.0109778200    0.0128884000
  -0.0021020200   -0.0125565800    0.0120089500
   0.0031273000   -0.0127953600   -0.0134308000
   0.0017340700   -0.0120447300   -0.0150089500
   0.0030536800   -0.0128352400   -0.0133744000
   0.0031910400   -0.0119172700   -0.0134248400
  -0.0040050000   -0.0142400100   -0.0005073200
  -0.0036027200   -0.0140855100   -0.0013864100
  -0.0033373100   -0.0145544600   -0.0011224100
  -0.0024304500   -0.0137692400   -0.0027640800
  -0.0047065100   -0.0057189800   -0.0037297800
  -0.0042114400   -0.0061264400   -0.0034034000
  -0.0056823200   -0.0046290700   -0.0034136600
  -0.0017254800   -0.0041892700   -0.0028407800
  -0.0007857800    0.0143344900   -0.0017136600
  -0.0068163200    0.0146623800    0.0003675000
  -0.0038116400    0.0139294100   -0.0012376200
  -0.0038058100    0.0143007800   -0.0009685700
   0.0007075900   -0.0137515100    0.0030059300
   0.0036013100   -0.0133702200    0.0015597400
   0.0032731400   -0.0137963900    0.0014492500
   0.0033731200   -0.0132289300    0.0017636800
   0.0030358700    0.0124683000   -0.0133581200
   0.0017081000    0.0134154000   -0.0125616300
   0.0031662700    0.0128438200   -0.0132671700
   0.0030416500    0.0124603100   -0.0126932000
   0.0046313200   -0.0050648900    0.0037336900
   0.0047233100   -0.0049728900    0.0022401300
   0.0051502700   -0.0047919100    0.0027335600
   0.0049148200   -0.0049169800    0.0027829500

5    
  0.0099998995408238   0.0000000000000000   0.0000448238042902
   0.0046175900   -0.0075013100   -0.0101573500
   0.0044216000   -0.0117366000   -0.0099372800
   0.0046017500   -0.0139914200   -0.0093534500
   0.0044081400   -0.0067678900   -0.0095484500
  -0.0269980000   -0.0087221000    0.0075231000
  -0.0013181800   -0.0089414900    0.0101044100
  -0.0042354900   -0.0085339300    0.0099623400
  -0.0035479500   -0.0085531600    0.0098553400
   0.0026553900    0.0076435800   -0.0098489500
   0.0034753000    0.0070190700   -0.0099152000
   0.0038157400    0.0083642400   -0.0097092800
   0.0044438200    0.0086532300   -0.0100881400
  -0.0014693800    0.0084257900    0.0052651600
  -0.0014121700    0.0093702400    0.0144086600
  -0.0040681300    0.0086797800    0.0094877100
  -0.0041240600    0.0082934400    0.0104437700
   0.0152866600   -0.0139842500   -0.0111818400
   0.0038396600   -0.0134743000   -0.0060651900
   0.0155096700   -0.0136290400   -0.0114931100
   0.0160811700   -0.0137028900   -0.0106665600
   0.0201426500    0.0181641600   -0.0016368900
   0.0199508700    0.0160894100   -0.0125762600
   0.0144556100    0.0135107800   -0.0111119400
   0.0155538100    0.0137433800   -0.0116483900
  -0.0143154600   -0.0134144500    0.0099141100
  -0.0153749700   -0.0151625400    0.0121701500
  -0.0162632200   -0.0140896900    0.0115725300
  -0.0156453700   -0.0137158000    0.0114786500
  -0.0155670000    0.0147539900    0.0070586200
  -0.0154962800    0.0136335400    0.0117858900
  -0.0194708000    0.0140553400    0.0100638600
  -0.0154052700    0.0132972900    0.0121794700
  -0.0023614600    0.0136717500    0.0127890400
  -0.0025476300    0.0136490900    0.0137553000
  -0.0025772500    0.0136208200    0.0123653000
  -0.0026878700    0.0125134900    0.0134622800
  -0.0024690500    0.0078919800   -0.0007424900
  -0.0045237400    0.0050436600   -0.0032486400
  -0.0038399700    0.0052983200   -0.0032131500
  -0.0048167800    0.0050857000   -0.0033575200
   0.0011142500    0.0122602600   -0.0012800000
   0.0016801700    0.0132853800    0.0022578300
   0.0033886500    0.0134616300    0.0013332500
   0.0032494700    0.0133216600    0.0015909100
   0.0125821600    0.0024725100   -0.0027228800
   0.0026322500    0.0044916900    0.0031950000
   0.0051003700    0.0046093500    0.0027162600
   0.0046926100    0.0055437300    0.0030199400
  -0.0021641400   -0.0127382100    0.0122669500
   0.0024020100   -0.0105677300    0.0165218700
  -0.0025296000   -0.0131066300    0.0130687900
  -0.0020178700   -0.0137016200    0.0137918700
   0.0017732400   -0.0141747700   -0.0129555600
   0.0024529800   -0.0139642600   -0.0144770100
   0.0030070400   -0.0128559500   -0.0131245200
   0.0032623800   -0.0116542900   -0.0139094700
  -0.0043361900   -0.0148900600   -0.0000645900
  -0.0040276300   -0.0137005600   -0.0017082500
  -0.0037784400   -0.0133657100   -0.0007398400
  -0.0038891000   -0.0142383500   -0.0009905200
  -0.0043417500   -0.0053167600   -0.0028517600
  -0.0050221700   -0.0044067400   -0.0038804300
  -0.0043386400   -0.0053391700   -0.0035172200
  -0.0046981300   -0.0049332200   -0.0033281800
  -0.0038446200    0.0145531500   -0.0002688100
  -0.0043014200    0.0141757500   -0.0016310500
  -0.0031315600    0.0145500800   -0.0011311100
  -0.0042105700    0.0140454300   -0.0012002500
   0.0033942200   -0.0123793800    0.0008390800
   0.0097323200   -0.0133125400    0.0005033800
   0.0028208700   -0.0129995600    0.0020771900
   0.0032619200   -0.0134994300    0.0012242800
   0.0069952700    0.0113980200   -0.0144665600
   0.0030324100    0.0129272900   -0.0135049000
   0.0032099400    0.0122507200   -0.0135489800
   0.0030164600    0.0127976700   -0.0131116900
   0.0047243200   -0.0052373500    0.0029461100
   0.0062522600   -0.0051894600    0.0016683800
   0.0050473400   -0.0042954300    0.0025924100
   0.0050829400   -0.0048283300    0.0026545000

5    
 -0.0099998995408238   0.0000000000000000  -0.0000448238042902
   0.0028900600   -0.0094384600   -0.0095739200
   0.0030786400   -0.0052011000   -0.0097950500
   0.0028817000   -0.0028915100   -0.0103812100
   0.0030685700   -0.0101503900   -0.0101835900
   0.0192255100   -0.0084082100    0.0122843500
  -0.0067726800   -0.0081607400    0.0097939200
  -0.0038706600   -0.0085609000    0.0099378200
  -0.0045601200   -0.0085361400    0.0100454500
   0.0048470300    0.0092872700   -0.0098785600
   0.0040224800    0.0099146800   -0.0098259600
   0.0036805200    0.0085618400   -0.0100248000
   0.0030478200    0.0082740300   -0.0096454500
  -0.0066139800    0.0086684700    0.0146252100
  -0.0066908800    0.0077279000    0.0054713400
  -0.0040371100    0.0084076900    0.0104119500
  -0.0039838600    0.0087994400    0.0094509300
   0.0151846000   -0.0135934800   -0.0112383200
   0.0266256600   -0.0140830500   -0.0163958900
   0.0149633900   -0.0139490700   -0.0109310500
   0.0143915100   -0.0138770000   -0.0117600300
   0.0102824100    0.0093818000   -0.0208895200
   0.0105610400    0.0114729400   -0.0099027500
   0.0160294500    0.0140713900   -0.0113119400
   0.0149214500    0.0138346500   -0.0107767800
  -0.0171764000   -0.0138332500    0.0133688500
  -0.0160895200   -0.0121054900    0.0111054800
  -0.0151929800   -0.0131891600    0.0117019200
  -0.0158110500   -0.0135631400    0.0117964200
  -0.0159051800    0.0125297600    0.0161978300
  -0.0159649900    0.0136417400    0.0114917400
  -0.0119453900    0.0131964000    0.0132116800
  -0.0160546500    0.0139895000    0.0110955700
  -0.0023427500    0.0125002300    0.0132672400
  -0.0021526500    0.0125260200    0.0122981400
  -0.0021214500    0.0125498700    0.0136918500
  -0.0019991900    0.0136578600    0.0125861900
  -0.0064299300    0.0024817100   -0.0059732200
  -0.0043729800    0.0053673100   -0.0034733500
  -0.0050636900    0.0051125100   -0.0035089700
  -0.0040789700    0.0053216300   -0.0033634300
   0.0053752200    0.0144746100    0.0041422000
   0.0048312900    0.0134570100    0.0006157100
   0.0031158300    0.0132756000    0.0015360000
   0.0032576100    0.0134143300    0.0012767000
  -0.0030057500    0.0073378600    0.0083824900
   0.0073894300    0.0051497000    0.0024101900
   0.0049585100    0.0050390100    0.0028807900
   0.0053688300    0.0041063500    0.0025792500
  -0.0025338200   -0.0134413300    0.0137842700
  -0.0071184000   -0.0155329900    0.0095758800
  -0.0021716300   -0.0130693700    0.0129833700
  -0.0026802700   -0.0124737800    0.0122574700
   0.0045035900   -0.0114220400   -0.0137201800