  80   80
1 1
     2.319994259119678    -0.014994828618664     0.238100329585656
    -0.015848000000000     2.459244000000000    -0.033653500000000
     0.236938244833427    -0.033090011099540     1.737706665907200
1 2
    -0.272625534371049    -0.039008304880572    -0.015704620164983
    -0.039059000000000     0.116722000000000    -0.009693000000000
    -0.015662303484140    -0.009724072808052    -0.000231484666225
1 3
     0.018079130739937     0.001194700059417    -0.001498950651948
     0.001148000000000    -0.244788000000000     0.003972500000000
    -0.001438770889859     0.003639124947023     0.040142865261650
1 4
    -0.050802487727221    -0.000730567059527     0.009525653031838
    -0.000800000000000    -0.105849500000000    -0.012990500000000
     0.009476520408439    -0.013149325592342    -0.011725318442785
1 5
    -0.086288730282945    -0.554773007753472    -0.051423363671591
    -0.096514500000000    -0.144641000000000    -0.054085000000000
     0.029083527276014    -0.032921224067861     0.002531484530528
1 6
    -0.067073771151173     0.169055547339785    -0.033021134597069
     0.327195000000000    -0.184600500000000    -0.065775500000000
     0.005710656201308    -0.039008072708680     0.289534297684534
1 7
    -0.086297072023129     0.096414642901262     0.029169237525541
     0.554824500000000    -0.144685500000000     0.032738000000000
    -0.051489362360427     0.053727182712658     0.002801080009849
1 8
    -0.067035335106079    -0.327208557404669     0.005934226127865
    -0.169066500000000    -0.184493500000000     0.038934500000000
    -0.033093649172436     0.065315806878358     0.289541128298636
1 9
     0.001213016792777     0.013831699634388     0.046382456951685
    -0.013829500000000    -0.139026500000000     0.022344500000000
     0.046402887123021    -0.022211564558069    -0.069046124541280
1 10
     0.007182142797125    -0.025385298589365    -0.049584672009147
     0.025241000000000    -0.108774500000000     0.018401500000000
    -0.049543016133098    -0.018284130620074    -0.007992653669311
1 11
    -0.259427551153191    -0.011349349159579     0.470680201772374
     0.011343500000000     0.035565500000000     0.166752000000000
     0.470719743403118    -0.166600061479077    -0.629904891508524
1 12
    -0.261960201719717     0.081296802145030    -0.445058438326839
    -0.081264000000000     0.031858500000000    -0.216043000000000
    -0.444948826292498     0.216517667635727    -0.414853831131630
1 13
     0.109430934822705    -0.082006904722917    -0.000717500749492
    -0.081926000000000     0.143988500000000    -0.069949000000000
    -0.000744133301932    -0.069699374392509    -0.200564515372520
1 14
     0.027253820877743    -0.146046140033764     0.006365967907964
    -0.145977500000000     0.378549000000000     0.271457000000000
     0.006347723569510     0.271769182817671    -0.447954828415465
1 15
    -0.006747926034385    -0.009834448246270    -0.015967878856291
    -0.009750000000000    -0.068498000000000    -0.003883500000000
    -0.015982970624370    -0.003714666804980     0.014438409528127
1 16
    -0.070028159508503     0.019102842867978     0.022252456590576
     0.019021500000000    -0.171780000000000     0.000328000000000
     0.022188212927515     0.000524060294481    -0.038536007142915
1 17
    -0.144771173692684     0.020143923124403     0.174065875120495
     0.528601000000000     0.427356000000000    -0.255401500000000
     0.372841921801028     0.183558547253723    -0.344264948834497
1 18
    -0.035712567092263    -0.152949056004337    -0.052721149358946
    -0.016861000000000    -0.053413500000000     0.007531500000000
    -0.021259166809351     0.012497710002022    -0.124906906551894
1 19
     0.053496955357470    -0.045048925442976     0.006294904885631
     0.003149500000000    -0.010981500000000     0.002085500000000
    -0.020952690863904     0.009363972078304     0.014425003296611
1 20
    -0.008349689052765    -0.007547292453492     0.015800604776197
    -0.003032000000000    -0.058146500000000    -0.017957500000000
    -0.010127392853398    -0.013114318812803    -0.000545702146860
1 21
     0.374029613348640     0.041534244177900     0.156842172457923
    -0.765128000000000    -0.679096000000000    -0.085822500000000
     0.523414770164062     0.317392308445030     0.107956737114025
1 22
    -0.032568915649297    -0.034602243898821    -0.054274597951312
     0.005540500000000     0.003980000000000    -0.028510500000000
    -0.001876577742476     0.002542463253554     0.001350334552670
1 23
    -0.017921564817835     0.112100461038096     0.455402681361867
    -0.268881500000000    -0.489403000000000    -1.000133000000000
     0.187709363940689    -0.192494791498046     0.336850831798681
1 24
    -0.023554696902702    -0.000429032097132    -0.014877054214116
    -0.011820000000000     0.028414000000000    -0.003606000000000
    -0.000566602028355     0.004468114081026     0.022511422680951
1 25
    -0.027440263734691     0.016062140148049     0.028214606271338
    -0.012295000000000    -0.016749000000000     0.002948000000000
     0.006578663397431    -0.009142193475356    -0.043910335778991
1 26
    -0.084163375873188     0.008456232530585    -0.054828937832553
     0.075379500000000    -0.116942500000000     0.078492000000000
    -0.104959771398878     0.063772458531066     0.005663737374106
1 27
    -0.005238219783523    -0.019500180035702    -0.002990430320185
     0.000195000000000    -0.027099000000000     0.015253500000000
     0.004610755630004    -0.008034985443634     0.014813619597787
1 28
     1.141115555783163     0.034928226004633    -0.513909612431285
     0.217374000000000    -0.176615000000000    -0.548104000000000
    -0.315589507114548    -1.007137879088547    -0.675322032629737
1 29
    -0.489621555705322     0.440364161515088    -0.964380814443043
     0.106281500000000     0.416051500000000    -0.631878000000000
    -0.714210460978545    -0.257840152414687     0.328759768645859
1 30
    -0.471369893324335     0.232245365739228     0.132894149286558
    -0.218813000000000     0.441876000000000    -0.078305000000000
     0.467755473775380    -0.351717719274514     0.142264978891534
1 31
     0.078499935754051    -0.028060003480544    -0.010063766963655
     0.002289500000000    -0.076038500000000     0.044268500000000
     0.015249229939228     0.005738377736602    -0.006767416688346
1 32
    -0.031806338318190    -0.004559634736749     0.043551346914278
     0.064644500000000    -0.043554000000000     0.009228500000000
     0.022536863154650    -0.000426351354156    -0.017827447335136
1 33
    -0.393119245483876    -0.137956143274465     0.121068841443014
     0.014376500000000    -0.257244500000000     0.046407000000000
     0.229296967670724     0.270784106265521     0.015588771569103
1 34
     0.007519924073167     0.015625374880985     0.020043493377491
     0.015357000000000    -0.033932500000000     0.003397500000000
    -0.008666941426472    -0.022135093468236     0.053143186207423
1 35
    -0.010428717183589    -0.052375052993981     0.024697753261775
     0.019612000000000     0.197818500000000    -0.063146000000000
    -0.009902680762595    -0.083543368845397     0.031901542513801
1 36
     0.008859889068391     0.002275969935443    -0.019332771591628
     0.012014500000000     0.067837000000000     0.022733000000000
     0.015772855170197     0.024217696485692     0.021880645284356
1 37
    -0.781859292592729    -0.244581213719316     0.555983214003338
    -0.047960000000000    -0.288753000000000     0.363389500000000
     0.303173307175477     0.183441965627957    -0.170362300537394
1 38
     0.237752547876287    -0.033011253115855    -0.039102613712665
    -0.035397000000000    -0.096349500000000     0.003639500000000
    -0.028814920068123     0.023742181015369    -0.055390012718052
1 39
    -0.007172422912719    -0.021417929834067     0.008041344394017
     0.007054500000000     0.039073500000000     0.004990500000000
    -0.004941379073252    -0.013672496045825     0.012099907521245
1 40
     0.033735038623690     0.071919103190439    -0.022195345106878
     0.027181000000000     0.066675000000000    -0.005829000000000
    -0.011087796999351    -0.010235788277948     0.010958939127741
1 41
    -0.066517769242700     0.043237996238830     0.002572430282549
     0.089188500000000     0.047825000000000    -0.068206500000000
    -0.057313071346294    -0.056568575000947     0.029358409433832
1 42
     0.041407887077368    -0.007601924186344     0.009586481663397
     0.023544000000000     0.024171500000000     0.027002500000000
    -0.005124754025094     0.019821570133710    -0.021280067567349
1 43
     0.004910581770846     0.043165645564133    -0.083164623105151
    -0.019664500000000     0.097589000000000     0.146346000000000
    -0.040499114794211     0.015123230939327    -0.053032615942799
1 44
     0.050864026883192     0.005491125683260     0.052472206611629
     0.027514000000000    -0.000580500000000     0.004906500000000
    -0.017181921210725     0.002772964127678     0.017919166190336
1 45
    -0.061077268273947     0.009500163381256    -0.014735431270906
     0.042461500000000     0.150550500000000     0.029689000000000
    -0.049381195274183    -0.040730131297129    -0.027823778458332
1 46
     0.036735415974157    -0.011778165488000    -0.000383527402682
    -0.092924000000000     0.034579500000000    -0.015033500000000
     0.004562992171222     0.003803150087200     0.003128594285864
1 47
    -0.197748126584604     0.269840723494525    -0.260603594892558
     0.158510000000000    -0.468873000000000     0.707920500000000
    -0.096680766759346     0.164976470619525    -0.232694017431987
1 48
     0.007381289688570    -0.016075242162141    -0.011365052121804
     0.030021500000000    -0.030527500000000     0.002482500000000
     0.015010877439760    -0.017606566347205     0.010137013166519
1 49
     0.010076455443083    -0.007997909796463    -0.017859212300909
    -0.017490500000000     0.051523000000000    -0.011745500000000
    -0.030643141075705    -0.024801676618231     0.005919374572049
1 50
    -0.015736816048142     0.112427209230598     0.060938339805120
    -0.013261500000000     0.074425000000000     0.001723000000000
     0.000816074726835    -0.000240897918722    -0.006074366959724
1 51
     0.137236857225908    -0.138178884029318    -0.038418677753227
     0.013870000000000    -0.360415000000000     0.115514500000000
    -0.177244785070503     0.166986249267599    -0.051916208659694
1 52
     0.064816091586057    -0.119517373304351     0.118398646205074
     0.025171500000000    -0.153526000000000     0.135833500000000
     0.076200482415110    -0.019036170331055    -0.041039975285619
1 53
    -0.018517448404197     0.035021503771631     0.075587242334223
    -0.005511500000000    -0.008555500000000     0.036653000000000
    -0.010426964266915     0.021829483922612     0.037149236130867
1 54
    -0.474023804399402     0.247114200438566    -0.345444754073863
     0.623230000000000     0.010562000000000     0.292760500000000
    -0.502625254675080     0.259188631739579    -0.450478549880819
1 55
     0.017798276334461    -0.001826024988612    -0.004324050001938
    -0.044855500000000     0.035913000000000     0.053620500000000
     0.006001825588609    -0.008922347426269    -0.011822610318638
1 56
    -0.033168015682577    -0.061672210849700    -0.076491995170441
     0.068917500000000     0.138521500000000     0.083152000000000
    -0.012675747066939     0.061148601751015    -0.068328261443059
1 57
     0.043303753167012     0.037024461638822    -0.064869527173936
     0.008702500000000     0.032111000000000     0.005211500000000
     0.004725582591738     0.011357872602613     0.027413001184397
1 58
    -0.001077346112093    -0.013133516876557     0.020945174245152
     0.008116500000000     0.070275000000000    -0.016473000000000
     0.022942115420781    -0.004933776153513    -0.019847452278013
1 59
    -0.014622447317663     0.098775575447341     0.058966761232248
    -0.000582000000000     0.015634000000000     0.013711000000000
     0.045467006870293     0.015932793988332     0.039004084045582
1 60
    -0.638012767539629     0.011420741066265     0.101814744810524
    -0.200130500000000    -0.202734500000000     0.107481500000000
    -0.281913127206397     0.052845506826062    -0.127660290563652
1 61
    -0.001582323336826     0.053203895421856     0.020779906024100
    -0.018243500000000    -0.071047000000000    -0.037348500000000
    -0.032391842094389    -0.025513439056817    -0.030385031576943
1 62
    -0.005519658373268    -0.000176411550555     0.014391050328925
     0.005149000000000     0.040371500000000    -0.079189000000000
     0.025121233018507    -0.112348835542952     0.005375322947879
1 63
     0.030762141738947    -0.041647554678730    -0.014882636164676
    -0.008817000000000    -0.018983000000000    -0.014152500000000
    -0.128912017655604     0.041080022934687    -0.016735158081416
1 64
    -0.123719143574454    -0.037309748621328     0.112492393893998
    -0.012137500000000     0.048119500000000     0.141294500000000
     0.245271618404397     0.097130044529160     0.143614805909054
1 65
     0.210581631151024    -0.110491512519516     0.270507069225702
    -0.062179500000000    -0.171934000000000     0.117924500000000
     0.516686249944492    -0.050999122617142     0.113923455208040
1 66
     0.158569155947563    -0.008833750801970    -0.082768854598626
     0.098740500000000    -0.152267000000000    -0.051609000000000
    -0.258805113322093     0.060495101460211     0.122038528008413
1 67
    -0.013688645909851     0.009385766624268     0.010056203424617
     0.001467500000000     0.055891000000000     0.013154500000000
    -0.011822201617554    -0.016770628200692    -0.009392866467281
1 68
     0.000294779235684    -0.004719463839239    -0.015838853343813
    -0.022340000000000     0.034569500000000     0.015605500000000
    -0.001177114356921     0.018832945849067     0.005509177185791
1 69
     0.057321777727550    -0.076590770749468    -0.105971310090937
    -0.372826000000000    -0.359186000000000     0.117148500000000
    -0.269544697694798    -0.101954459765651     0.115283724812973
1 70
     0.022845774164389     0.041905333795205     0.060183320720862
     0.010511000000000    -0.032333000000000     0.034737000000000
     0.058441122194798     0.029244992566270     0.057510485756813
1 71
    -0.001959607211015     0.075407655461425    -0.036260176173817
    -0.066945000000000    -0.070214000000000     0.079300500000000
     0.000911909425660     0.000245868838491    -0.023355468056253
1 72
     0.009155939764534    -0.011881945165770    -0.011593125152296
    -0.055982000000000     0.109764500000000    -0.093630500000000
     0.021004958587025     0.008884966672975     0.032016177785088
1 73
     0.022653213783074     0.053534868616338     0.066069649536630
     0.022602000000000    -0.011222500000000     0.028127500000000
     0.007253688025934     0.000483937179348     0.039714209100525
1 74
     0.034994243674930    -0.057360229455723    -0.044154067257655
    -0.151509500000000    -0.057377500000000     0.057475000000000
    -0.146326742235893     0.038852842221081     0.059594158452704
1 75
     0.000796154286838     0.058327624895901     0.023702697069981
    -0.049735500000000     0.074628500000000     0.042230500000000
     0.007664166798537     0.050076307035592     0.021314800667619
1 76
     0.019652010837056     0.056134050612798    -0.073073169545693
     0.010804000000000     0.050464000000000    -0.024874000000000
     0.005953663650147     0.000783803451333     0.023076010679851
1 77
    -0.010601456491827    -0.010948654616380    -0.051195586206139
    -0.074172500000000    -0.121878500000000     0.047855500000000
    -0.056142046289227    -0.037135485382981     0.078768838363513
1 78
     0.057298381318196     0.079885810972471     0.052143925015879
    -0.027480000000000     0.033924500000000    -0.026764500000000
     0.002832043558840     0.038147488039623    -0.031546002072517
1 79
    -0.011342034788338    -0.013498538876880     0.015556042352190
     0.021526000000000     0.074535500000000     0.000121500000000
     0.006786761559622    -0.005487425424732     0.003148756057888
1 80
     0.024681269644741     0.027260916752252    -0.003426428171457
     0.023140500000000     0.052152500000000     0.005513500000000
     0.003230047402138     0.007888020490953    -0.004262523108232
2 1
    -0.272625534371049    -0.039008304880572    -0.015704620164983
    -0.039059000000000     0.116722000000000    -0.009693000000000
    -0.015662303484140    -0.009724072808052    -0.000231484666225
2 2
     2.319994259119679    -0.014994828618664     0.238100329585656
    -0.015848000000000     2.459244000000000    -0.033653500000000
     0.236938244833427    -0.033090011099540     1.737706665907200
2 3
    -0.050802487727221    -0.000730567059527     0.009525653031838
    -0.000800000000000    -0.105849500000000    -0.012990500000000
     0.009476520408439    -0.013149325592342    -0.011725318442785
2 4
     0.018079130739937     0.001194700059417    -0.001498950651948
     0.001148000000000    -0.244788000000000     0.003972500000000
    -0.001438770889859     0.003639124947023     0.040142865261650
2 5
    -0.067073771151173     0.169055547339785    -0.033021134597069
     0.327195000000000    -0.184600500000000    -0.065775500000000
     0.005710656201308    -0.039008072708680     0.289534297684534
2 6
    -0.086288730282945    -0.554773007753473    -0.051423363671591
    -0.096514500000000    -0.144641000000000    -0.054085000000000
     0.029083527276014    -0.032921224067861     0.002531484530528
2 7
    -0.067035335106079    -0.327208557404670     0.005934226127865
    -0.169066500000000    -0.184493500000000     0.038934500000000
    -0.033093649172436     0.065315806878358     0.289541128298636
2 8
    -0.086297072023129     0.096414642901262     0.029169237525541
     0.554824500000000    -0.144685500000000     0.032738000000000
    -0.051489362360427     0.053727182712658     0.002801080009849
2 9
     0.007182142797125    -0.025385298589365    -0.049584672009147
     0.025241000000000    -0.108774500000000     0.018401500000000
    -0.049543016133098    -0.018284130620074    -0.007992653669311
2 10
     0.001213016792777     0.013831699634388     0.046382456951685
    -0.013829500000000    -0.139026500000000     0.022344500000000
     0.046402887123021    -0.022211564558069    -0.069046124541280
2 11
    -0.261960201719717     0.081296802145030    -0.445058438326839
    -0.081264000000000     0.031858500000000    -0.216043000000000
    -0.444948826292498     0.216517667635727    -0.414853831131630
2 12
    -0.259427551153191    -0.011349349159579     0.470680201772374
     0.011343500000000     0.035565500000000     0.166752000000000
     0.470719743403118    -0.166600061479077    -0.629904891508524
2 13
     0.027253820877743    -0.146046140033764     0.006365967907964
    -0.145977500000000     0.378549000000000     0.271457000000000
     0.006347723569510     0.271769182817671    -0.447954828415465
2 14
     0.109430934822705    -0.082006904722917    -0.000717500749492
    -0.081926000000000     0.143988500000000    -0.069949000000000
    -0.000744133301932    -0.069699374392509    -0.200564515372520
2 15
    -0.070028159508503     0.019102842867978     0.022252456590576
     0.019021500000000    -0.171780000000000     0.000328000000000
     0.022188212927515     0.000524060294481    -0.038536007142915
2 16
    -0.006747926034385    -0.009834448246270    -0.015967878856291
    -0.009750000000000    -0.068498000000000    -0.003883500000000
    -0.015982970624370    -0.003714666804980     0.014438409528127
2 17
    -0.035712567092263    -0.152949056004337    -0.052721149358946
    -0.016861000000000    -0.053413500000000     0.007531500000000
    -0.021259166809351     0.012497710002022    -0.124906906551894
2 18
    -0.144771173692684     0.020143923124403     0.174065875120495
     0.528601000000000     0.427356000000000    -0.255401500000000
     0.372841921801028     0.183558547253723    -0.344264948834497
2 19
    -0.008349689052765    -0.007547292453492     0.015800604776197
    -0.003032000000000    -0.058146500000000    -0.017957500000000
    -0.010127392853398    -0.013114318812803    -0.000545702146860
2 20
     0.053496955357470    -0.045048925442976     0.006294904885631
     0.003149500000000    -0.010981500000000     0.002085500000000
    -0.020952690863904     0.009363972078304     0.014425003296611
2 21
    -0.032568915649297    -0.034602243898821    -0.054274597951312
     0.005540500000000     0.003980000000000    -0.028510500000000
    -0.001876577742476     0.002542463253554     0.001350334552670
2 22
     0.374029613348640     0.041534244177900     0.156842172457923
    -0.765128000000000    -0.679096000000000    -0.085822500000000
     0.523414770164062     0.317392308445030     0.107956737114025
2 23
    -0.023554696902702    -0.000429032097132    -0.014877054214116
    -0.011820000000000     0.028414000000000    -0.003606000000000
    -0.000566602028355     0.004468114081026     0.022511422680951
2 24
    -0.017921564817835     0.112100461038096     0.455402681361867
    -0.268881500000000    -0.489403000000000    -1.000133000000000
     0.187709363940689    -0.192494791498046     0.336850831798681
2 25
    -0.084163375873188     0.008456232530585    -0.054828937832553
     0.075379500000000    -0.116942500000000     0.078492000000000
    -0.104959771398878     0.063772458531066     0.005663737374106
2 26
    -0.027440263734691     0.016062140148049     0.028214606271338
    -0.012295000000000    -0.016749000000000     0.002948000000000
     0.006578663397431    -0.009142193475356    -0.043910335778991
2 27
     1.141115555783163     0.034928226004633    -0.513909612431285
     0.217374000000000    -0.176615000000000    -0.548104000000000
    -0.315589507114548    -1.007137879088547    -0.675322032629737
2 28
    -0.005238219783523    -0.019500180035702    -0.002990430320185
     0.000195000000000    -0.027099000000000     0.015253500000000
     0.004610755630004    -0.008034985443634     0.014813619597787
2 29
    -0.471369893324335     0.232245365739228     0.132894149286558
    -0.218813000000000     0.441876000000000    -0.078305000000000
     0.467755473775380    -0.351717719274514     0.142264978891534
2 30
    -0.489621555705322     0.440364161515089    -0.964380814443044
     0.106281500000000     0.416051500000000    -0.631878000000000
    -0.714210460978545    -0.257840152414687     0.328759768645859
2 31
    -0.031806338318190    -0.004559634736749     0.043551346914278
     0.064644500000000    -0.043554000000000     0.009228500000000
     0.022536863154650    -0.000426351354156    -0.017827447335136
2 32
     0.078499935754051    -0.028060003480544    -0.010063766963655
     0.002289500000000    -0.076038500000000     0.044268500000000
     0.015249229939228     0.005738377736602    -0.006767416688346
2 33
     0.007519924073167     0.015625374880985     0.020043493377491
     0.015357000000000    -0.033932500000000     0.003397500000000
    -0.008666941426472    -0.022135093468236     0.053143186207423
2 34
    -0.393119245483876    -0.137956143274465     0.121068841443014
     0.014376500000000    -0.257244500000000     0.046407000000000
     0.229296967670724     0.270784106265521     0.015588771569103
2 35
     0.008859889068391     0.002275969935443    -0.019332771591628
     0.012014500000000     0.067837000000000     0.022733000000000
     0.015772855170197     0.024217696485692     0.021880645284356
2 36
    -0.010428717183589    -0.052375052993981     0.024697753261775
     0.019612000000000     0.197818500000000    -0.063146000000000
    -0.009902680762595    -0.083543368845397     0.031901542513801
2 37
     0.237752547876287    -0.033011253115855    -0.039102613712666
    -0.035397000000000    -0.096349500000000     0.003639500000000
    -0.028814920068123     0.023742181015369    -0.055390012718052
2 38
    -0.781859292592729    -0.244581213719316     0.555983214003338
    -0.047960000000000    -0.288753000000000     0.363389500000000
     0.303173307175477     0.183441965627957    -0.170362300537394
2 39
     0.033735038623690     0.071919103190439    -0.022195345106878
     0.027181000000000     0.066675000000000    -0.005829000000000
    -0.011087796999351    -0.010235788277948     0.010958939127741
2 40
    -0.007172422912719    -0.021417929834067     0.008041344394017
     0.007054500000000     0.039073500000000     0.004990500000000
    -0.004941379073252    -0.013672496045825     0.012099907521245
2 41
     0.041407887077368    -0.007601924186344     0.009586481663397
     0.023544000000000     0.024171500000000     0.027002500000000
    -0.005124754025094     0.019821570133710    -0.021280067567349
2 42
    -0.066517769242700     0.043237996238830     0.002572430282549
     0.089188500000000     0.047825000000000    -0.068206500000000
    -0.057313071346294    -0.056568575000947     0.029358409433832
2 43
     0.050864026883192     0.005491125683260     0.052472206611629
     0.027514000000000    -0.000580500000000     0.004906500000000
    -0.017181921210725     0.002772964127678     0.017919166190336
2 44
     0.004910581770846     0.043165645564133    -0.083164623105151
    -0.019664500000000     0.097589000000000     0.146346000000000
    -0.040499114794211     0.015123230939327    -0.053032615942799
2 45
     0.036735415974157    -0.011778165488000    -0.000383527402682
    -0.092924000000000     0.034579500000000    -0.015033500000000
     0.004562992171222     0.003803150087200     0.003128594285864
2 46
    -0.061077268273947     0.009500163381256    -0.014735431270906
     0.042461500000000     0.150550500000000     0.029689000000000
    -0.049381195274183    -0.040730131297129    -0.027823778458332
2 47
     0.007381289688570    -0.016075242162141    -0.011365052121804
     0.030021500000000    -0.030527500000000     0.002482500000000
     0.015010877439760    -0.017606566347205     0.010137013166519
2 48
    -0.197748126584604     0.269840723494525    -0.260603594892559
     0.158510000000000    -0.468873000000000     0.707920500000000
    -0.096680766759346     0.164976470619525    -0.232694017431987
2 49
    -0.015736816048142     0.112427209230598     0.060938339805121
    -0.013261500000000     0.074425000000000     0.001723000000000
     0.000816074726835    -0.000240897918722    -0.006074366959724
2 50
     0.010076455443083    -0.007997909796463    -0.017859212300909
    -0.017490500000000     0.051523000000000    -0.011745500000000
    -0.030643141075705    -0.024801676618231     0.005919374572049
2 51
     0.064816091586057    -0.119517373304351     0.118398646205074
     0.025171500000000    -0.153526000000000     0.135833500000000
     0.076200482415110    -0.019036170331055    -0.041039975285619
2 52
     0.137236857225908    -0.138178884029318    -0.038418677753227
     0.013870000000000    -0.360415000000000     0.115514500000000
    -0.177244785070503     0.166986249267599    -0.051916208659694
2 53
    -0.474023804399402     0.247114200438566    -0.345444754073863
     0.623230000000000     0.010562000000000     0.292760500000000
    -0.502625254675080     0.259188631739579    -0.450478549880819
2 54
    -0.018517448404197     0.035021503771631     0.075587242334224
    -0.005511500000000    -0.008555500000000     0.036653000000000
    -0.010426964266915     0.021829483922612     0.037149236130867
2 55
    -0.033168015682577    -0.061672210849700    -0.076491995170441
     0.068917500000000     0.138521500000000     0.083152000000000
    -0.012675747066939     0.061148601751015    -0.068328261443059
2 56
     0.017798276334461    -0.001826024988612    -0.004324050001938
    -0.044855500000000     0.035913000000000     0.053620500000000
     0.006001825588609    -0.008922347426269    -0.011822610318638
2 57
    -0.001077346112093    -0.013133516876557     0.020945174245152
     0.008116500000000     0.070275000000000    -0.016473000000000
     0.022942115420781    -0.004933776153513    -0.019847452278013
2 58
     0.043303753167012     0.037024461638822    -0.064869527173936
     0.008702500000000     0.032111000000000     0.005211500000000
     0.004725582591738     0.011357872602613     0.027413001184397
2 59
    -0.638012767539630     0.011420741066265     0.101814744810524
    -0.200130500000000    -0.202734500000000     0.107481500000000
    -0.281913127206397     0.052845506826062    -0.127660290563652
2 60
    -0.014622447317663     0.098775575447341     0.058966761232248
    -0.000582000000000     0.015634000000000     0.013711000000000
     0.045467006870293     0.015932793988332     0.039004084045582
2 61
    -0.005519658373268    -0.000176411550555     0.014391050328925
     0.005149000000000     0.040371500000000    -0.079189000000000
     0.025121233018507    -0.112348835542952     0.005375322947879
2 62
    -0.001582323336826     0.053203895421856     0.020779906024100
    -0.018243500000000    -0.071047000000000    -0.037348500000000
    -0.032391842094389    -0.025513439056817    -0.030385031576943
2 63
    -0.123719143574454    -0.037309748621328     0.112492393893998
    -0.012137500000000     0.048119500000000     0.141294500000000
     0.245271618404397     0.097130044529160     0.143614805909054
2 64
     0.030762141738947    -0.041647554678730    -0.014882636164676
    -0.008817000000000    -0.018983000000000    -0.014152500000000
    -0.128912017655604     0.041080022934687    -0.016735158081416
2 65
     0.158569155947563    -0.008833750801970    -0.082768854598626
     0.098740500000000    -0.152267000000000    -0.051609000000000
    -0.258805113322093     0.060495101460211     0.122038528008413
2 66
     0.210581631151024    -0.110491512519516     0.270507069225702