natom:   80
displacements:
- atom:    1
  displacement:
    [   0.0100000000000000,  0.0000000000000000,  0.0000000000000000 ]
- atom:    1
  displacement:
    [  -0.0100000000000000,  0.0000000000000000,  0.0000000000000000 ]
- atom:    1
  displacement:
    [   0.0000000000000000,  0.0000000000000000,  0.0100000000000000 ]
- atom:    1
  displacement:
    [   0.0000000000000000,  0.0000000000000000, -0.0100000000000000 ]
- atom:   13
  displacement:
    [   0.0100000000000000,  0.0000000000000000,  0.0000000000000000 ]
- atom:   13
  displacement:
    [  -0.0100000000000000,  0.0000000000000000,  0.0000000000000000 ]
- atom:   13
  displacement:
    [   0.0000000000000000,  0.0000000000000000,  0.0100000000000000 ]
- atom:   13
  displacement:
    [   0.0000000000000000,  0.0000000000000000, -0.0100000000000000 ]
- atom:   49
  displacement:
    [   0.0100000000000000,  0.0000000000000000,  0.0000000000000000 ]
- atom:   49
  displacement:
    [  -0.0100000000000000,  0.0000000000000000,  0.0000000000000000 ]
- atom:   53
  displacement:
    [   0.0100000000000000,  0.0000000000000000,  0.0000000000000000 ]
- atom:   53
  displacement:
    [   0.0000000000000000,  0.0100000000000000,  0.0000000000000000 ]
- atom:   53
  displacement:
    [   0.0000000000000000, -0.0100000000000000,  0.0000000000000000 ]
- atom:   69
  displacement:
    [   0.0100000000000000,  0.0000000000000000,  0.0000000000000000 ]
- atom:   69
  displacement:
    [   0.0000000000000000,  0.0000000000000000,  0.0100000000000000 ]
lattice:
- [    10.8579889800000000,     0.0000000000000000,     0.0000000000000000 ] # a
- [     0.0000000000000000,    10.8579889800000000,     0.0000000000000000 ] # b
- [     0.0000000000000000,     0.0000000000000000,    10.8579889800000000 ] # c
atoms:
- symbol: O  # 1
  position: [  0.6377288300000000,  0.3622711700000000,  0.1625059800000000 ]
  mass: 15.999400
- symbol: O  # 2
  position: [  0.6625059800000000,  0.1377288300000000,  0.8622711700000000 ]
  mass: 15.999400
- symbol: O  # 3
  position: [  0.3622711700000000,  0.8374940200000000,  0.3622711700000000 ]
  mass: 15.999400
- symbol: O  # 4
  position: [  0.8622711700000000,  0.6625059800000000,  0.1377288300000000 ]
  mass: 15.999400
- symbol: O  # 5
  position: [  0.3374940200000000,  0.1377288300000000,  0.1377288300000000 ]
  mass: 15.999400
- symbol: O  # 6
  position: [  0.3622711700000000,  0.3622711700000000,  0.8374940200000000 ]
  mass: 15.999400
- symbol: O  # 7
  position: [  0.1377288300000000,  0.1377288300000000,  0.3374940200000000 ]
  mass: 15.999400
- symbol: O  # 8
  position: [  0.8374940200000000,  0.3622711700000000,  0.3622711700000000 ]
  mass: 15.999400
- symbol: O  # 9
  position: [  0.6625059800000000,  0.8622711700000000,  0.1377288300000000 ]
  mass: 15.999400
- symbol: O  # 10
  position: [  0.1377288300000000,  0.3374940200000000,  0.1377288300000000 ]
  mass: 15.999400
- symbol: O  # 11
  position: [  0.1377288300000000,  0.6625059800000000,  0.8622711700000000 ]
  mass: 15.999400
- symbol: O  # 12
  position: [  0.3622711700000000,  0.6377288300000000,  0.1625059800000000 ]
  mass: 15.999400
- symbol: O  # 13
  position: [  0.3989666500000000,  0.6010333500000000,  0.8907408200000000 ]
  mass: 15.999400
- symbol: O  # 14
  position: [  0.3907408200000000,  0.8989666500000000,  0.1010333500000000 ]
  mass: 15.999400
- symbol: O  # 15
  position: [  0.1010333500000000,  0.6092591800000000,  0.1010333500000000 ]
  mass: 15.999400
- symbol: O  # 16
  position: [  0.1010333500000000,  0.3907408200000000,  0.8989666500000000 ]
  mass: 15.999400
- symbol: O  # 17
  position: [  0.6010333500000000,  0.3989666500000000,  0.8907408200000000 ]
  mass: 15.999400
- symbol: O  # 18
  position: [  0.8989666500000000,  0.3907408200000000,  0.1010333500000000 ]
  mass: 15.999400
- symbol: O  # 19
  position: [  0.3989666500000000,  0.1092591800000000,  0.3989666500000000 ]
  mass: 15.999400
- symbol: O  # 20
  position: [  0.3907408200000000,  0.1010333500000000,  0.8989666500000000 ]
  mass: 15.999400
- symbol: O  # 21
  position: [  0.6092591800000000,  0.1010333500000000,  0.1010333500000000 ]
  mass: 15.999400
- symbol: O  # 22
  position: [  0.3989666500000000,  0.3989666500000000,  0.1092591800000000 ]
  mass: 15.999400
- symbol: O  # 23
  position: [  0.1010333500000000,  0.1010333500000000,  0.6092591800000000 ]
  mass: 15.999400
- symbol: O  # 24
  position: [  0.1092591800000000,  0.3989666500000000,  0.3989666500000000 ]
  mass: 15.999400
- symbol: O  # 25
  position: [  0.1377288300000000,  0.8622711700000000,  0.6625059800000000 ]
  mass: 15.999400
- symbol: O  # 26
  position: [  0.1625059800000000,  0.6377288300000000,  0.3622711700000000 ]
  mass: 15.999400
- symbol: O  # 27
  position: [  0.8622711700000000,  0.3374940200000000,  0.8622711700000000 ]
  mass: 15.999400
- symbol: O  # 28
  position: [  0.3622711700000000,  0.1625059800000000,  0.6377288300000000 ]
  mass: 15.999400
- symbol: O  # 29
  position: [  0.8374940200000000,  0.6377288300000000,  0.6377288300000000 ]
  mass: 15.999400
- symbol: O  # 30
  position: [  0.8622711700000000,  0.8622711700000000,  0.3374940200000000 ]
  mass: 15.999400
- symbol: O  # 31
  position: [  0.6377288300000000,  0.6377288300000000,  0.8374940200000000 ]
  mass: 15.999400
- symbol: O  # 32
  position: [  0.3374940200000000,  0.8622711700000000,  0.8622711700000000 ]
  mass: 15.999400
- symbol: O  # 33
  position: [  0.1625059800000000,  0.3622711700000000,  0.6377288300000000 ]
  mass: 15.999400
- symbol: O  # 34
  position: [  0.6377288300000000,  0.8374940200000000,  0.6377288300000000 ]
  mass: 15.999400
- symbol: O  # 35
  position: [  0.6377288300000000,  0.1625059800000000,  0.3622711700000000 ]
  mass: 15.999400
- symbol: O  # 36
  position: [  0.8622711700000000,  0.1377288300000000,  0.6625059800000000 ]
  mass: 15.999400
- symbol: O  # 37
  position: [  0.8989666500000000,  0.1010333500000000,  0.3907408200000000 ]
  mass: 15.999400
- symbol: O  # 38
  position: [  0.8907408200000000,  0.3989666500000000,  0.6010333500000000 ]
  mass: 15.999400
- symbol: O  # 39
  position: [  0.6010333500000000,  0.1092591800000000,  0.6010333500000000 ]
  mass: 15.999400
- symbol: O  # 40
  position: [  0.6010333500000000,  0.8907408200000000,  0.3989666500000000 ]
  mass: 15.999400
- symbol: O  # 41
  position: [  0.1010333500000000,  0.8989666500000000,  0.3907408200000000 ]
  mass: 15.999400
- symbol: O  # 42
  position: [  0.3989666500000000,  0.8907408200000000,  0.6010333500000000 ]
  mass: 15.999400
- symbol: O  # 43
  position: [  0.8989666500000000,  0.6092591800000000,  0.8989666500000000 ]
  mass: 15.999400
- symbol: O  # 44
  position: [  0.8907408200000000,  0.6010333500000000,  0.3989666500000000 ]
  mass: 15.999400
- symbol: O  # 45
  position: [  0.1092591800000000,  0.6010333500000000,  0.6010333500000000 ]
  mass: 15.999400
- symbol: O  # 46
  position: [  0.8989666500000000,  0.8989666500000000,  0.6092591800000000 ]
  mass: 15.999400
- symbol: O  # 47
  position: [  0.6010333500000000,  0.6010333500000000,  0.1092591800000000 ]
  mass: 15.999400
- symbol: O  # 48
  position: [  0.6092591800000000,  0.8989666500000000,  0.8989666500000000 ]
  mass: 15.999400
- symbol: Sb # 49
  position: [  0.2430485500000000,  0.2430485500000000,  0.7569514500000000 ]
  mass: 121.760000
- symbol: Sb # 50
  position: [  0.2569514500000000,  0.2569514500000000,  0.2569514500000000 ]
  mass: 121.760000
- symbol: Sb # 51
  position: [  0.7569514500000000,  0.2430485500000000,  0.2430485500000000 ]
  mass: 121.760000
- symbol: Sb # 52
  position: [  0.7430485500000000,  0.2569514500000000,  0.7430485500000000 ]
  mass: 121.760000
- symbol: Sb # 53
  position: [  0.0000000000000000,  0.2780511400000000,  0.0000000000000000 ]
  mass: 121.760000
- symbol: Sb # 54
  position: [  0.0000000000000000,  0.7219488600000000,  0.0000000000000000 ]
  mass: 121.760000
- symbol: Sb # 55
  position: [  0.5000000000000000,  0.5000000000000000,  0.7780511400000000 ]
  mass: 121.760000
- symbol: Sb # 56
  position: [  0.5000000000000000,  0.5000000000000000,  0.2219488600000000 ]
  mass: 121.760000
- symbol: Sb # 57
  position: [  0.7219488600000000,  0.0000000000000000,  0.0000000000000000 ]
  mass: 121.760000
- symbol: Sb # 58
  position: [  0.2780511400000000,  0.0000000000000000,  0.0000000000000000 ]
  mass: 121.760000
- symbol: Sb # 59
  position: [  0.7430485500000000,  0.7430485500000000,  0.2569514500000000 ]
  mass: 121.760000
- symbol: Sb # 60
  position: [  0.7569514500000000,  0.7569514500000000,  0.7569514500000000 ]
  mass: 121.760000
- symbol: Sb # 61
  position: [  0.2569514500000000,  0.7430485500000000,  0.7430485500000000 ]
  mass: 121.760000
- symbol: Sb # 62
  position: [  0.2430485500000000,  0.7569514500000000,  0.2430485500000000 ]
  mass: 121.760000
- symbol: Sb # 63
  position: [  0.5000000000000000,  0.7780511400000000,  0.5000000000000000 ]
  mass: 121.760000
- symbol: Sb # 64
  position: [  0.5000000000000000,  0.2219488600000000,  0.5000000000000000 ]
  mass: 121.760000
- symbol: Sb # 65
  position: [  0.0000000000000000,  0.0000000000000000,  0.2780511400000000 ]
  mass: 121.760000
- symbol: Sb # 66
  position: [  0.0000000000000000,  0.0000000000000000,  0.7219488600000000 ]
  mass: 121.760000
- symbol: Sb # 67
  position: [  0.2219488600000000,  0.5000000000000000,  0.5000000000000000 ]
  mass: 121.760000
- symbol: Sb # 68
  position: [  0.7780511400000000,  0.5000000000000000,  0.5000000000000000 ]
  mass: 121.760000
- symbol: Sm # 69
  position: [  0.5000000000000000,  0.0000000000000000,  0.2500000000000000 ]
  mass: 150.360000
- symbol: Sm # 70
  position: [  0.2500000000000000,  0.0000000000000000,  0.5000000000000000 ]
  mass: 150.360000
- symbol: Sm # 71
  position: [  0.2500000000000000,  0.5000000000000000,  0.0000000000000000 ]
  mass: 150.360000
- symbol: Sm # 72
  position: [  0.5000000000000000,  0.2500000000000000,  0.0000000000000000 ]
  mass: 150.360000
- symbol: Sm # 73
  position: [  0.0000000000000000,  0.2500000000000000,  0.5000000000000000 ]
  mass: 150.360000
- symbol: Sm # 74
  position: [  0.0000000000000000,  0.5000000000000000,  0.2500000000000000 ]
  mass: 150.360000
- symbol: Sm # 75
  position: [  0.0000000000000000,  0.5000000000000000,  0.7500000000000000 ]
  mass: 150.360000
- symbol: Sm # 76
  position: [  0.7500000000000000,  0.5000000000000000,  0.0000000000000000 ]
  mass: 150.360000
- symbol: Sm # 77
  position: [  0.7500000000000000,  0.0000000000000000,  0.5000000000000000 ]
  mass: 150.360000
- symbol: Sm # 78
  position: [  0.0000000000000000,  0.7500000000000000,  0.5000000000000000 ]
  mass: 150.360000
- symbol: Sm # 79
  position: [  0.5000000000000000,  0.7500000000000000,  0.0000000000000000 ]
  mass: 150.360000
- symbol: Sm # 80
  position: [  0.5000000000000000,  0.0000000000000000,  0.7500000000000000 ]
  mass: 150.360000