  80   80
1 1
    10.396322999999995    -5.772394999999997     2.500853499999999
    -5.772394999999997    10.396322999999995    -2.500853499999999
     2.500412500000000    -2.500412500000000     6.510416500000000
1 2
     0.159348000000000    -0.018310000000000    -0.057362500000000
     0.018686000000000     0.043234000000000    -0.138038500000000
     0.080010000000000    -0.125016000000000    -0.140331000000000
1 3
     0.014138000000000     0.087734500000000     0.093610000000000
    -0.056053000000000    -0.144137500000000    -0.089210500000000
    -0.016862000000000    -0.035901000000000    -0.034188500000000
1 4
     0.043218500000000    -0.124945500000000    -0.018310500000000
    -0.138024500000000    -0.140412500000000    -0.057358500000000
     0.018711500000000     0.080044000000000     0.159336000000000
1 5
    -0.140412500000000    -0.138024500000000     0.057358500000000
    -0.124945500000000     0.043218500000000     0.018310500000000
    -0.080044000000000    -0.018711500000000     0.159336000000000
1 6
    -0.098704500000000    -0.000243000000000    -0.189007500000000
     0.000242000000000     0.160840000000000    -0.002734500000000
    -0.188978000000000     0.002793000000000    -0.107661000000000
1 7
    -0.305192500000000    -0.188115000000000     0.043940000000000
     0.188111000000000     0.137083000000000    -0.016957000000000
    -0.043968500000000    -0.017021500000000     0.034227000000000
1 8
    -0.404472000000000    -0.268986000000000    -0.728023000000000
    -0.169724000000000     0.911968500000000     0.269004500000000
    -0.779486000000000     0.169774000000000    -0.404420500000000
1 9
     0.100037000000000     0.109303000000000     0.006794500000000
    -0.041155500000000    -0.445780500000000     0.109326500000000
     0.019615000000000    -0.041126500000000     0.100026000000000
1 10
    -0.445780500000000    -0.041155500000000    -0.109326500000000
     0.109303000000000     0.100037000000000    -0.006794500000000
     0.041126500000000    -0.019615000000000     0.100026000000000
1 11
    -0.132537000000000     0.058592000000000    -0.033519000000000
    -0.033496000000000    -0.031509000000000     0.065438500000000
     0.058537000000000     0.026346000000000    -0.031445000000000
1 12
    -0.845095500000000     0.848051000000000    -0.543700000000000
     0.848051000000000    -0.845095500000000     0.543700000000000
     0.543754500000000    -0.543754500000000     0.561856000000000
1 13
     0.054422000000000     0.019960000000000    -0.185486500000000
     0.019960000000000     0.054422000000000     0.185486500000000
    -0.084982000000000     0.084982000000000     0.079247500000000
1 14
     0.014538500000000     0.087118000000000     0.018470000000000
    -0.010206000000000    -0.247307500000000    -0.056184000000000
     0.009791000000000    -0.070067500000000     0.096611500000000
1 15
    -0.247307500000000    -0.010206000000000     0.056184000000000
     0.087118000000000     0.014538500000000    -0.018470000000000
     0.070067500000000    -0.009791000000000     0.096611500000000
1 16
    -0.287248500000000    -0.201085000000000     0.072512000000000
     0.084098000000000     0.160601000000000     0.002604500000000
     0.031835500000000    -0.003527500000000    -0.006839500000000
1 17
     0.313253000000000     0.142940000000000    -0.255162500000000
     0.142940000000000     0.313253000000000     0.255162500000000
    -0.337982500000000     0.337982500000000    -1.199348500000000
1 18
    -1.210097499999999     0.068809500000000     0.419133500000000
    -0.158490500000000     0.551550000000000    -0.086649000000000
     0.485124000000000    -0.149192500000000     0.223604000000000
1 19
     0.117248000000000     0.014558500000000     0.045104000000000
    -0.184611000000000    -0.020539000000000     0.032336500000000
     0.086638500000000     0.029301500000000     0.006824500000000
1 20
    -0.285168000000000    -0.395672500000000    -0.166984500000000
    -0.184864500000000    -0.232879000000000    -0.062589000000000
    -0.366872500000000    -0.531214000000000    -0.214555500000000
1 21
     0.551550000000000    -0.158490500000000     0.086649000000000
     0.068809500000000    -1.210097499999999    -0.419133500000000
     0.149192500000000    -0.485124000000000     0.223604000000000
1 22
    -2.417964499999999     0.586458500000000    -0.581382500000000
     0.692856000000000     0.599675000000000     0.371069000000000
    -0.912423000000000     0.372705000000000     0.421315000000000
1 23
    -0.092205500000000     0.062595500000000    -0.085680000000000
     0.047767000000000    -0.022149500000000     0.054274500000000
    -0.010567500000000     0.041972000000000    -0.092138000000000
1 24
    -0.240120500000000    -0.050599500000000    -0.021248000000000
     0.096467000000000     0.095485500000000    -0.006619000000000
    -0.076026000000000    -0.015602000000000    -0.000845000000000
1 25
    -0.088118500000000     0.071411500000000    -0.028355500000000
     0.071411500000000    -0.088118500000000     0.028355500000000
    -0.028403000000000     0.028403000000000    -0.046409000000000
1 26
    -0.144137500000000    -0.056053000000000     0.089210500000000
     0.087734500000000     0.014138000000000    -0.093610000000000
     0.035901000000000     0.016862000000000    -0.034188500000000
1 27
     0.043234000000000     0.018686000000000     0.138038500000000
    -0.018310000000000     0.159348000000000     0.057362500000000
     0.125016000000000    -0.080010000000000    -0.140331000000000
1 28
     0.014123000000000     0.016898000000000    -0.056058000000000
    -0.093604000000000    -0.034257500000000     0.089210500000000
     0.087812000000000     0.035861000000000    -0.144182500000000
1 29
    -0.034257500000000    -0.093604000000000    -0.089210500000000
     0.016898000000000     0.014123000000000     0.056058000000000
    -0.035861000000000    -0.087812000000000    -0.144182500000000
1 30
     0.137083000000000     0.188111000000000     0.016957000000000
    -0.188115000000000    -0.305192500000000    -0.043940000000000
     0.017021500000000     0.043968500000000     0.034227000000000
1 31
     0.160840000000000     0.000242000000000     0.002734500000000
    -0.000243000000000    -0.098704500000000     0.189007500000000
    -0.002793000000000     0.188978000000000    -0.107661000000000
1 32
    -0.031509000000000    -0.033496000000000    -0.065438500000000
     0.058592000000000    -0.132537000000000     0.033519000000000
    -0.026346000000000    -0.058537000000000    -0.031445000000000
1 33
    -0.112135500000000    -0.041423500000000    -0.011411500000000
     0.044496500000000     0.104809000000000    -0.041422000000000
    -0.009110500000000     0.044568500000000    -0.112182500000000
1 34
     0.104809000000000     0.044496500000000     0.041422000000000
    -0.041423500000000    -0.112135500000000     0.011411500000000
    -0.044568500000000     0.009110500000000    -0.112182500000000
1 35
     0.911968500000000    -0.169724000000000    -0.269004500000000
    -0.268986000000000    -0.404472000000000     0.728023000000000
    -0.169774000000000     0.779486000000000    -0.404420500000000
1 36
     0.039341000000000     0.001456000000000    -0.072682500000000
     0.001456000000000     0.039341000000000     0.072682500000000
     0.072749000000000    -0.072749000000000    -0.095528000000000
1 37
    -0.546151000000000     0.566443000000000    -0.646774500000000
     0.566443000000000    -0.546151000000000     0.646774500000000
    -0.104669500000000     0.104669500000000    -0.039794000000000
1 38
     0.006579500000000    -0.063031000000000    -0.162676000000000
    -0.016966500000000     0.075887500000000     0.076565000000000
    -0.039664500000000     0.004154500000000    -0.196688500000000
1 39
     0.075887500000000    -0.016966500000000    -0.076565000000000
    -0.063031000000000     0.006579500000000     0.162676000000000
    -0.004154500000000     0.039664500000000    -0.196688500000000
1 40
     0.095485500000000     0.096467000000000     0.006619000000000
    -0.050599500000000    -0.240120500000000     0.021248000000000
     0.015602000000000     0.076026000000000    -0.000845000000000
1 41
    -0.173636500000000     0.138143000000000    -0.043875000000000
     0.138143000000000    -0.173636500000000     0.043875000000000
     0.009163500000000    -0.009163500000000    -0.037420500000000
1 42
    -0.024034500000000     0.067294500000000     0.023863000000000
     0.015636500000000    -0.115362000000000    -0.039500000000000
     0.016872000000000    -0.045815000000000    -0.079205000000000
1 43
    -0.232879000000000    -0.184864500000000     0.062589000000000
    -0.395672500000000    -0.285168000000000     0.166984500000000
     0.531214000000000     0.366872500000000    -0.214555500000000
1 44
    -0.020539000000000    -0.184611000000000    -0.032336500000000
     0.014558500000000     0.117248000000000    -0.045104000000000
    -0.029301500000000    -0.086638500000000     0.006824500000000
1 45
    -0.115362000000000     0.015636500000000     0.039500000000000
     0.067294500000000    -0.024034500000000    -0.023863000000000
     0.045815000000000    -0.016872000000000    -0.079205000000000
1 46
    -0.022149500000000     0.047767000000000    -0.054274500000000
     0.062595500000000    -0.092205500000000     0.085680000000000
    -0.041972000000000     0.010567500000000    -0.092138000000000
1 47
     0.599675000000000     0.692856000000000    -0.371069000000000
     0.586458500000000    -2.417964499999999     0.581382500000000
    -0.372705000000000     0.912423000000000     0.421315000000000
1 48
     0.160601000000000     0.084098000000000    -0.002604500000000
    -0.201085000000000    -0.287248500000000    -0.072512000000000
     0.003527500000000    -0.031835500000000    -0.006839500000000
1 49
     0.168706500000000     0.042690500000000     0.112228000000000
     0.043003500000000    -0.120122000000000    -0.038373500000000
     0.102172500000000     0.069489000000000     0.202916000000000
1 50
     0.527576500000000     0.271170500000000    -0.303324000000000
    -0.102061000000000    -0.315643000000000     0.132253000000000
     0.042756000000000     0.038323000000000    -0.206910500000000
1 51
    -5.731765499999997     3.825316999999998    -1.070212999999999
     3.825316999999998    -5.731765499999997     1.070212999999999
    -1.786787500000000     1.786787500000000    -3.144834500000000
1 52
    -0.185566500000000    -0.041684500000000     0.036411000000000
    -0.041684500000000    -0.185566500000000    -0.036411000000000
    -0.130776000000000     0.130776000000000     0.342179000000000
1 53
     0.500423500000000    -0.128002000000000    -0.337156000000000
    -0.140315500000000    -0.214722000000000     0.100041000000000
    -0.162209000000000     0.115388000000000    -0.007353000000000
1 54
     0.158846500000000     0.015759500000000     0.045032500000000
     0.081533500000000     0.111137000000000    -0.002546000000000
    -0.136160000000000    -0.073131000000000    -0.156807000000000
1 55
    -0.109007500000000    -0.058768500000000     0.112946500000000
    -0.058768500000000    -0.109007500000000    -0.112946500000000
     0.266168000000000    -0.266168000000000     0.154813000000000
1 56
    -0.893640000000000    -0.429291500000000     1.136366499999999
    -0.429291500000000    -0.893640000000000    -1.136366499999999
     0.802391000000000    -0.802391000000000    -2.834722000000000
1 57
    -0.214722000000000    -0.140315500000000    -0.100041000000000
    -0.128002000000000     0.500423500000000     0.337156000000000
    -0.115388000000000     0.162209000000000    -0.007353000000000
1 58
     0.111137000000000     0.081533500000000     0.002546000000000
     0.015759500000000     0.158846500000000    -0.045032500000000
     0.073131000000000     0.136160000000000    -0.156807000000000
1 59
    -0.315643000000000    -0.102061000000000    -0.132253000000000
     0.271170500000000     0.527576500000000     0.303324000000000
    -0.038323000000000    -0.042756000000000    -0.206910500000000
1 60
    -0.120122000000000     0.043003500000000     0.038373500000000
     0.042690500000000     0.168706500000000    -0.112228000000000
    -0.069489000000000    -0.102172500000000     0.202916000000000
1 61
     0.099236500000000    -0.022211000000000     0.084076500000000
    -0.022211000000000     0.099236500000000    -0.084076500000000
     0.045315000000000    -0.045315000000000     0.102568500000000
1 62
     0.406588000000000    -0.323524500000000    -0.387617000000000
    -0.323524500000000     0.406588000000000     0.387617000000000
    -0.167357000000000     0.167357000000000     0.145168500000000
1 63
    -0.111993000000000    -0.135673500000000    -0.072633000000000
     0.083339500000000     0.167068500000000     0.056969500000000
     0.030842000000000     0.067643000000000     0.105198000000000
1 64
    -0.239119500000000     0.081230500000000     0.112812000000000
     0.410922500000000    -0.117206000000000    -0.391598500000000
    -0.322332000000000    -0.065516000000000     0.386531000000000
1 65
     0.442071500000000    -0.374579000000000    -0.040277500000000
    -0.374579000000000     0.442071500000000     0.040277500000000
     0.050836500000000    -0.050836500000000    -0.070254000000000
1 66
     0.061012500000000    -0.053965000000000     0.039055500000000
    -0.053965000000000     0.061012500000000    -0.039055500000000
    -0.016663500000000     0.016663500000000     0.052150500000000
1 67
     0.167068500000000     0.083339500000000    -0.056969500000000
    -0.135673500000000    -0.111993000000000     0.072633000000000
    -0.067643000000000    -0.030842000000000     0.105198000000000
1 68
    -0.117206000000000     0.410922500000000     0.391598500000000
     0.081230500000000    -0.239119500000000    -0.112812000000000
     0.065516000000000     0.322332000000000     0.386531000000000
1 69
    -0.194711500000000    -0.031445500000000    -0.118916500000000
     0.370231000000000     0.512658500000000    -0.078621000000000
    -0.065142000000000    -0.083430500000000    -0.305099500000000
1 70
     0.126085000000000    -0.050717000000000    -0.001281500000000
    -0.041365500000000     0.108181000000000    -0.022628500000000
    -0.019975000000000     0.003596500000000     0.055082000000000
1 71
     0.682238500000000    -0.118264500000000     0.452378000000000
    -0.329399000000000    -0.097289000000000    -0.291020500000000
     0.050513000000000    -0.186058000000000    -0.115643000000000
1 72
    -0.519650000000000     0.809313000000000     0.571490500000000
     0.531324500000000    -0.780564500000000     0.332858000000000
     0.678339500000000     0.860875500000000    -0.087765000000000
1 73
     0.392567500000000     0.054493000000000     0.301434000000000
    -0.230882500000000    -0.260951000000000    -0.215323000000000
     0.178181000000000    -0.137630000000000     0.197897500000000
1 74
     0.512658500000000     0.370231000000000     0.078621000000000
    -0.031445500000000    -0.194711500000000     0.118916500000000
     0.083430500000000     0.065142000000000    -0.305099500000000
1 75
     0.123490000000000     0.065771000000000    -0.041562500000000
     0.001925000000000    -0.112422500000000    -0.086748500000000
    -0.050797000000000     0.027761500000000     0.214648000000000
1 76
    -0.780564500000000     0.531324500000000    -0.332858000000000
     0.809313000000000    -0.519650000000000    -0.571490500000000
    -0.860875500000000    -0.678339500000000    -0.087765000000000
1 77
    -0.260951000000000    -0.230882500000000     0.215323000000000
     0.054493000000000     0.392567500000000    -0.301434000000000
     0.137630000000000    -0.178181000000000     0.197897500000000
1 78
     0.108181000000000    -0.041365500000000     0.022628500000000
    -0.050717000000000     0.126085000000000     0.001281500000000
    -0.003596500000000     0.019975000000000     0.055082000000000
1 79
    -0.097289000000000    -0.329399000000000     0.291020500000000
    -0.118264500000000     0.682238500000000    -0.452378000000000
     0.186058000000000    -0.050513000000000    -0.115643000000000
1 80
    -0.112422500000000     0.001925000000000     0.086748500000000
     0.065771000000000     0.123490000000000     0.041562500000000
    -0.027761500000000     0.050797000000000     0.214648000000000
2 1
     0.159336000000000     0.018711500000000     0.080044000000000
    -0.018310500000000     0.043218500000000    -0.124945500000000
    -0.057358500000000    -0.138024500000000    -0.140412500000000
2 2
     6.510416500000000     2.500412500000000    -2.500412500000000
     2.500853499999999    10.396322999999995    -5.772394999999997
    -2.500853499999999    -5.772394999999997    10.396322999999995
2 3
    -0.031445000000000    -0.026346000000000    -0.058537000000000
    -0.065438500000000    -0.031509000000000    -0.033496000000000
     0.033519000000000     0.058592000000000    -0.132537000000000
2 4
    -0.034188500000000     0.035901000000000     0.016862000000000
     0.089210500000000    -0.144137500000000    -0.056053000000000
    -0.093610000000000     0.087734500000000     0.014138000000000
2 5
    -0.107661000000000    -0.002793000000000     0.188978000000000
     0.002734500000000     0.160840000000000     0.000242000000000
     0.189007500000000    -0.000243000000000    -0.098704500000000
2 6
    -0.140331000000000     0.125016000000000    -0.080010000000000
     0.138038500000000     0.043234000000000     0.018686000000000
     0.057362500000000    -0.018310000000000     0.159348000000000
2 7
    -0.112182500000000    -0.044568500000000     0.009110500000000
     0.041422000000000     0.104809000000000     0.044496500000000
     0.011411500000000    -0.041423500000000    -0.112135500000000
2 8
     0.034227000000000     0.017021500000000     0.043968500000000
     0.016957000000000     0.137083000000000     0.188111000000000
    -0.043940000000000    -0.188115000000000    -0.305192500000000
2 9
     0.561856000000000     0.543754500000000    -0.543754500000000
    -0.543700000000000    -0.845095500000000     0.848051000000000
     0.543700000000000     0.848051000000000    -0.845095500000000
2 10
    -0.144182500000000    -0.035861000000000    -0.087812000000000
    -0.089210500000000    -0.034257500000000    -0.093604000000000
     0.056058000000000     0.016898000000000     0.014123000000000
2 11
    -0.112182500000000    -0.009110500000000     0.044568500000000
    -0.011411500000000    -0.112135500000000    -0.041423500000000
    -0.041422000000000     0.044496500000000     0.104809000000000
2 12
    -0.031445000000000     0.058537000000000     0.026346000000000
    -0.033519000000000    -0.132537000000000     0.058592000000000
     0.065438500000000    -0.033496000000000    -0.031509000000000
2 13
    -0.006839500000000     0.031835500000000    -0.003527500000000
     0.072512000000000    -0.287248500000000    -0.201085000000000
     0.002604500000000     0.084098000000000     0.160601000000000
2 14
     0.079247500000000    -0.084982000000000     0.084982000000000
    -0.185486500000000     0.054422000000000     0.019960000000000
     0.185486500000000     0.019960000000000     0.054422000000000
2 15
    -0.079205000000000     0.045815000000000    -0.016872000000000
     0.039500000000000    -0.115362000000000     0.015636500000000
    -0.023863000000000     0.067294500000000    -0.024034500000000
2 16
    -0.196688500000000    -0.039664500000000     0.004154500000000
    -0.162676000000000     0.006579500000000    -0.063031000000000
     0.076565000000000    -0.016966500000000     0.075887500000000
2 17
     0.223604000000000     0.485124000000000    -0.149192500000000
     0.419133500000000    -1.210097499999999     0.068809500000000
    -0.086649000000000    -0.158490500000000     0.551550000000000
2 18
     0.006824500000000    -0.029301500000000    -0.086638500000000
    -0.032336500000000    -0.020539000000000    -0.184611000000000
    -0.045104000000000     0.014558500000000     0.117248000000000
2 19
    -0.006839500000000     0.003527500000000    -0.031835500000000
    -0.002604500000000     0.160601000000000     0.084098000000000
    -0.072512000000000    -0.201085000000000    -0.287248500000000
2 20
    -1.199348500000000    -0.337982500000000     0.337982500000000
    -0.255162500000000     0.313253000000000     0.142940000000000
     0.255162500000000     0.142940000000000     0.313253000000000
2 21
     0.421315000000000    -0.372705000000000     0.912423000000000
    -0.371069000000000     0.599675000000000     0.692856000000000
     0.581382500000000     0.586458500000000    -2.417964499999999
2 22
    -0.214555500000000     0.531214000000000     0.366872500000000
     0.062589000000000    -0.232879000000000    -0.184864500000000
     0.166984500000000    -0.395672500000000    -0.285168000000000
2 23
    -0.196688500000000    -0.004154500000000     0.039664500000000
    -0.076565000000000     0.075887500000000    -0.016966500000000
     0.162676000000000    -0.063031000000000     0.006579500000000
2 24
    -0.092138000000000    -0.041972000000000     0.010567500000000
    -0.054274500000000    -0.022149500000000     0.047767000000000
     0.085680000000000     0.062595500000000    -0.092205500000000
2 25
    -0.144182500000000     0.087812000000000     0.035861000000000
    -0.056058000000000     0.014123000000000     0.016898000000000
     0.089210500000000    -0.093604000000000    -0.034257500000000
2 26
    -0.046409000000000    -0.028403000000000     0.028403000000000
    -0.028355500000000    -0.088118500000000     0.071411500000000
     0.028355500000000     0.071411500000000    -0.088118500000000
2 27
    -0.404420500000000    -0.779486000000000     0.169774000000000
    -0.728023000000000    -0.404472000000000    -0.268986000000000
     0.269004500000000    -0.169724000000000     0.911968500000000
2 28
    -0.140331000000000     0.080010000000000    -0.125016000000000
    -0.057362500000000     0.159348000000000    -0.018310000000000
    -0.138038500000000     0.018686000000000     0.043234000000000
2 29
     0.034227000000000    -0.043968500000000    -0.017021500000000
     0.043940000000000    -0.305192500000000    -0.188115000000000
    -0.016957000000000     0.188111000000000     0.137083000000000
2 30
    -0.034188500000000    -0.016862000000000    -0.035901000000000
     0.093610000000000     0.014138000000000     0.087734500000000
    -0.089210500000000    -0.056053000000000    -0.144137500000000
2 31
     0.100026000000000     0.041126500000000    -0.019615000000000
    -0.109326500000000    -0.445780500000000    -0.041155500000000
    -0.006794500000000     0.109303000000000     0.100037000000000
2 32
    -0.107661000000000    -0.188978000000000     0.002793000000000
    -0.189007500000000    -0.098704500000000    -0.000243000000000
    -0.002734500000000     0.000242000000000     0.160840000000000
2 33
    -0.095528000000000     0.072749000000000    -0.072749000000000
    -0.072682500000000     0.039341000000000     0.001456000000000
     0.072682500000000     0.001456000000000     0.039341000000000
2 34
     0.159336000000000    -0.080044000000000    -0.018711500000000
     0.057358500000000    -0.140412500000000    -0.138024500000000
     0.018310500000000    -0.124945500000000     0.043218500000000
2 35
     0.100026000000000     0.019615000000000    -0.041126500000000
     0.006794500000000     0.100037000000000     0.109303000000000
     0.109326500000000    -0.041155500000000    -0.445780500000000
2 36
    -0.404420500000000    -0.169774000000000     0.779486000000000
    -0.269004500000000     0.911968500000000    -0.169724000000000
     0.728023000000000    -0.268986000000000    -0.404472000000000
2 37
    -0.000845000000000     0.015602000000000     0.076026000000000
     0.006619000000000     0.095485500000000     0.096467000000000
     0.021248000000000    -0.050599500000000    -0.240120500000000
2 38
    -0.039794000000000    -0.104669500000000     0.104669500000000
    -0.646774500000000    -0.546151000000000     0.566443000000000
     0.646774500000000     0.566443000000000    -0.546151000000000
2 39
     0.223604000000000     0.149192500000000    -0.485124000000000
     0.086649000000000     0.551550000000000    -0.158490500000000
    -0.419133500000000     0.068809500000000    -1.210097499999999
2 40
     0.096611500000000     0.009791000000000    -0.070067500000000
     0.018470000000000     0.014538500000000     0.087118000000000
    -0.056184000000000    -0.010206000000000    -0.247307500000000
2 41
    -0.079205000000000     0.016872000000000    -0.045815000000000
     0.023863000000000    -0.024034500000000     0.067294500000000
    -0.039500000000000     0.015636500000000    -0.115362000000000
2 42
    -0.214555500000000    -0.366872500000000    -0.531214000000000
    -0.166984500000000    -0.285168000000000    -0.395672500000000
    -0.062589000000000    -0.184864500000000    -0.232879000000000
2 43
    -0.000845000000000    -0.076026000000000    -0.015602000000000
    -0.021248000000000    -0.240120500000000    -0.050599500000000
    -0.006619000000000     0.096467000000000     0.095485500000000
2 44
    -0.037420500000000     0.009163500000000    -0.009163500000000
    -0.043875000000000    -0.173636500000000     0.138143000000000
     0.043875000000000     0.138143000000000    -0.173636500000000
2 45
    -0.092138000000000    -0.010567500000000     0.041972000000000
    -0.085680000000000    -0.092205500000000     0.062595500000000
     0.054274500000000     0.047767000000000    -0.022149500000000
2 46
     0.006824500000000     0.086638500000000     0.029301500000000
     0.045104000000000     0.117248000000000     0.014558500000000
     0.032336500000000    -0.184611000000000    -0.020539000000000
2 47
     0.096611500000000     0.070067500000000    -0.009791000000000
     0.056184000000000    -0.247307500000000    -0.010206000000000
    -0.018470000000000     0.087118000000000     0.014538500000000
2 48
     0.421315000000000    -0.912423000000000     0.372705000000000
    -0.581382500000000    -2.417964499999999     0.586458500000000
     0.371069000000000     0.692856000000000     0.599675000000000
2 49
     0.342179000000000    -0.130776000000000     0.130776000000000
     0.036411000000000    -0.185566500000000    -0.041684500000000
    -0.036411000000000    -0.041684500000000    -0.185566500000000
2 50
     0.202916000000000    -0.069489000000000    -0.102172500000000
     0.038373500000000    -0.120122000000000     0.043003500000000
    -0.112228000000000     0.042690500000000     0.168706500000000
2 51
    -0.206910500000000    -0.038323000000000    -0.042756000000000
    -0.132253000000000    -0.315643000000000    -0.102061000000000
     0.303324000000000     0.271170500000000     0.527576500000000
2 52
    -3.144834500000000    -1.786787500000000     1.786787500000000
    -1.070212999999999    -5.731765499999997     3.825316999999998
     1.070212999999999     3.825316999999998    -5.731765499999997
2 53
     0.386531000000000     0.065516000000000     0.322332000000000
     0.391598500000000    -0.117206000000000     0.410922500000000
    -0.112812000000000     0.081230500000000    -0.239119500000000
2 54
     0.105198000000000    -0.067643000000000    -0.030842000000000
    -0.056969500000000     0.167068500000000     0.083339500000000
     0.072633000000000    -0.135673500000000    -0.111993000000000
2 55
    -0.007353000000000    -0.162209000000000     0.115388000000000
    -0.337156000000000     0.500423500000000    -0.128002000000000
     0.100041000000000    -0.140315500000000    -0.214722000000000
2 56
    -0.156807000000000    -0.136160000000000    -0.073131000000000
     0.045032500000000     0.158846500000000     0.015759500000000
    -0.002546000000000     0.081533500000000     0.111137000000000
2 57
    -2.834722000000000     0.802391000000000    -0.802391000000000
     1.136366499999999    -0.893640000000000    -0.429291500000000
    -1.136366499999999    -0.429291500000000    -0.893640000000000
2 58
     0.154813000000000     0.266168000000000    -0.266168000000000
     0.112946500000000    -0.109007500000000    -0.058768500000000
    -0.112946500000000    -0.058768500000000    -0.109007500000000
2 59
     0.145168500000000    -0.167357000000000     0.167357000000000
    -0.387617000000000     0.406588000000000    -0.323524500000000
     0.387617000000000    -0.323524500000000     0.406588000000000
2 60
    -0.206910500000000     0.042756000000000     0.038323000000000
    -0.303324000000000     0.527576500000000     0.271170500000000
     0.132253000000000    -0.102061000000000    -0.315643000000000
2 61
     0.202916000000000     0.102172500000000     0.069489000000000
     0.112228000000000     0.168706500000000     0.042690500000000
    -0.038373500000000     0.043003500000000    -0.120122000000000
2 62
     0.102568500000000     0.045315000000000    -0.045315000000000
     0.084076500000000     0.099236500000000    -0.022211000000000
    -0.084076500000000    -0.022211000000000     0.099236500000000
2 63
    -0.156807000000000     0.073131000000000     0.136160000000000
     0.002546000000000     0.111137000000000     0.081533500000000
    -0.045032500000000     0.015759500000000     0.158846500000000
2 64
    -0.007353000000000    -0.115388000000000     0.162209000000000
    -0.100041000000000    -0.214722000000000    -0.140315500000000
     0.337156000000000    -0.128002000000000     0.500423500000000
2 65
     0.105198000000000     0.030842000000000     0.067643000000000
    -0.072633000000000    -0.111993000000000    -0.135673500000000
     0.056969500000000     0.083339500000000     0.167068500000000
2 66
     0.386531000000000    -0.322332000000000    -0.065516000000000