phonopy:
  version: "2.21.2"
  frequency_unit_conversion_factor: 15.633302
  symmetry_tolerance: 1.00000e-05
  configuration:
    force_constants: "WRITE"
    dim: "1 0 0 0 1 0 0 0 1"
    primitive_axis: "-1/2 1/2 1/2 1/2 -1/2 1/2 1/2 1/2 -1/2"
    full_force_constants: ".TRUE."

physical_unit:
  atomic_mass: "AMU"
  length: "angstrom"
  force_constants: "eV/angstrom^2"

space_group:
  type: "I-43m"
  number: 217
  Hall_symbol: "I -4 2 3"

primitive_matrix:
- [ -0.500000000000000,  0.500000000000000,  0.500000000000000 ]
- [  0.500000000000000, -0.500000000000000,  0.500000000000000 ]
- [  0.500000000000000,  0.500000000000000, -0.500000000000000 ]

supercell_matrix:
- [   1,   0,   0 ]
- [   0,   1,   0 ]
- [   0,   0,   1 ]

primitive_cell:
  lattice:
  - [    -5.428994490000000,     5.428994490000000,     5.428994490000000 ] # a
  - [     5.428994490000000,    -5.428994490000000,     5.428994490000000 ] # b
  - [     5.428994490000000,     5.428994490000000,    -5.428994490000000 ] # c
  points:
  - symbol: O  # 1
    coordinates: [  0.524777150000000,  0.800234810000000,  0.000000000000000 ]
    mass: 15.999400
  - symbol: O  # 2
    coordinates: [  0.000000000000000,  0.524777150000000,  0.800234810000000 ]
    mass: 15.999400
  - symbol: O  # 3
    coordinates: [  0.199765190000000,  0.724542340000000,  0.199765190000000 ]
    mass: 15.999400
  - symbol: O  # 4
    coordinates: [  0.800234810000000,  0.000000000000000,  0.524777150000000 ]
    mass: 15.999400
  - symbol: O  # 5
    coordinates: [  0.275457660000000,  0.475222850000000,  0.475222850000000 ]
    mass: 15.999400
  - symbol: O  # 6
    coordinates: [  0.199765190000000,  0.199765190000000,  0.724542340000000 ]
    mass: 15.999400
  - symbol: O  # 7
    coordinates: [  0.475222850000000,  0.475222850000000,  0.275457660000000 ]
    mass: 15.999400
  - symbol: O  # 8
    coordinates: [  0.724542340000000,  0.199765190000000,  0.199765190000000 ]
    mass: 15.999400
  - symbol: O  # 9
    coordinates: [  0.000000000000000,  0.800234810000000,  0.524777150000000 ]
    mass: 15.999400
  - symbol: O  # 10
    coordinates: [  0.475222850000000,  0.275457660000000,  0.475222850000000 ]
    mass: 15.999400
  - symbol: O  # 11
    coordinates: [  0.524777150000000,  0.000000000000000,  0.800234810000000 ]
    mass: 15.999400
  - symbol: O  # 12
    coordinates: [  0.800234810000000,  0.524777150000000,  0.000000000000000 ]
    mass: 15.999400
  - symbol: O  # 13
    coordinates: [  0.491774170000000,  0.289707470000000,  0.000000000000000 ]
    mass: 15.999400
  - symbol: O  # 14
    coordinates: [  0.000000000000000,  0.491774170000000,  0.289707470000000 ]
    mass: 15.999400
  - symbol: O  # 15
    coordinates: [  0.710292530000000,  0.202066700000000,  0.710292530000000 ]
    mass: 15.999400
  - symbol: O  # 16
    coordinates: [  0.289707470000000,  0.000000000000000,  0.491774170000000 ]
    mass: 15.999400
  - symbol: O  # 17
    coordinates: [  0.289707470000000,  0.491774170000000,  0.000000000000000 ]
    mass: 15.999400
  - symbol: O  # 18
    coordinates: [  0.491774170000000,  0.000000000000000,  0.289707470000000 ]
    mass: 15.999400
  - symbol: O  # 19
    coordinates: [  0.508225830000000,  0.797933300000000,  0.508225830000000 ]
    mass: 15.999400
  - symbol: O  # 20
    coordinates: [  0.000000000000000,  0.289707470000000,  0.491774170000000 ]
    mass: 15.999400
  - symbol: O  # 21
    coordinates: [  0.202066700000000,  0.710292530000000,  0.710292530000000 ]
    mass: 15.999400
  - symbol: O  # 22
    coordinates: [  0.508225830000000,  0.508225830000000,  0.797933300000000 ]
    mass: 15.999400
  - symbol: O  # 23
    coordinates: [  0.710292530000000,  0.710292530000000,  0.202066700000000 ]
    mass: 15.999400
  - symbol: O  # 24
    coordinates: [  0.797933300000000,  0.508225830000000,  0.508225830000000 ]
    mass: 15.999400
  - symbol: Sb # 25
    coordinates: [  0.000000000000000,  0.000000000000000,  0.486097100000000 ]
    mass: 121.760000
  - symbol: Sb # 26
    coordinates: [  0.513902900000000,  0.513902900000000,  0.513902900000000 ]
    mass: 121.760000
  - symbol: Sb # 27
    coordinates: [  0.486097100000000,  0.000000000000000,  0.000000000000000 ]
    mass: 121.760000
  - symbol: Sb # 28
    coordinates: [  0.000000000000000,  0.486097100000000,  0.000000000000000 ]
    mass: 121.760000
  - symbol: Sb # 29
    coordinates: [  0.278051140000000,  0.000000000000000,  0.278051140000000 ]
    mass: 121.760000
  - symbol: Sb # 30
    coordinates: [  0.721948860000000,  0.000000000000000,  0.721948860000000 ]
    mass: 121.760000
  - symbol: Sb # 31
    coordinates: [  0.278051140000000,  0.278051140000000,  0.000000000000000 ]
    mass: 121.760000
  - symbol: Sb # 32
    coordinates: [  0.721948860000000,  0.721948860000000,  0.000000000000000 ]
    mass: 121.760000
  - symbol: Sb # 33
    coordinates: [  0.000000000000000,  0.721948860000000,  0.721948860000000 ]
    mass: 121.760000
  - symbol: Sb # 34
    coordinates: [  0.000000000000000,  0.278051140000000,  0.278051140000000 ]
    mass: 121.760000
  - symbol: Sm # 35
    coordinates: [  0.250000000000000,  0.750000000000000,  0.500000000000000 ]
    mass: 150.360000
  - symbol: Sm # 36
    coordinates: [  0.500000000000000,  0.750000000000000,  0.250000000000000 ]
    mass: 150.360000
  - symbol: Sm # 37
    coordinates: [  0.500000000000000,  0.250000000000000,  0.750000000000000 ]
    mass: 150.360000
  - symbol: Sm # 38
    coordinates: [  0.250000000000000,  0.500000000000000,  0.750000000000000 ]
    mass: 150.360000
  - symbol: Sm # 39
    coordinates: [  0.750000000000000,  0.500000000000000,  0.250000000000000 ]
    mass: 150.360000
  - symbol: Sm # 40
    coordinates: [  0.750000000000000,  0.250000000000000,  0.500000000000000 ]
    mass: 150.360000
  reciprocal_lattice: # without 2pi
  - [    -0.000000000000000,     0.092098085735946,     0.092098085735946 ] # a*
  - [     0.092098085735946,     0.000000000000000,     0.092098085735946 ] # b*
  - [     0.092098085735946,     0.092098085735946,     0.000000000000000 ] # c*

unit_cell:
  lattice:
  - [    10.857988980000000,     0.000000000000000,     0.000000000000000 ] # a
  - [     0.000000000000000,    10.857988980000000,     0.000000000000000 ] # b
  - [     0.000000000000000,     0.000000000000000,    10.857988980000000 ] # c
  points:
  - symbol: O  # 1
    coordinates: [  0.637728830000000,  0.362271170000000,  0.162505980000000 ]
    mass: 15.999400
    reduced_to: 1
  - symbol: O  # 2
    coordinates: [  0.662505980000000,  0.137728830000000,  0.862271170000000 ]
    mass: 15.999400
    reduced_to: 2
  - symbol: O  # 3
    coordinates: [  0.362271170000000,  0.837494020000000,  0.362271170000000 ]
    mass: 15.999400
    reduced_to: 3
  - symbol: O  # 4
    coordinates: [  0.862271170000000,  0.662505980000000,  0.137728830000000 ]
    mass: 15.999400
    reduced_to: 4
  - symbol: O  # 5
    coordinates: [  0.337494020000000,  0.137728830000000,  0.137728830000000 ]
    mass: 15.999400
    reduced_to: 5
  - symbol: O  # 6
    coordinates: [  0.362271170000000,  0.362271170000000,  0.837494020000000 ]
    mass: 15.999400
    reduced_to: 6
  - symbol: O  # 7
    coordinates: [  0.137728830000000,  0.137728830000000,  0.337494020000000 ]
    mass: 15.999400
    reduced_to: 7
  - symbol: O  # 8
    coordinates: [  0.837494020000000,  0.362271170000000,  0.362271170000000 ]
    mass: 15.999400
    reduced_to: 8
  - symbol: O  # 9
    coordinates: [  0.662505980000000,  0.862271170000000,  0.137728830000000 ]
    mass: 15.999400
    reduced_to: 9
  - symbol: O  # 10
    coordinates: [  0.137728830000000,  0.337494020000000,  0.137728830000000 ]
    mass: 15.999400
    reduced_to: 10
  - symbol: O  # 11
    coordinates: [  0.137728830000000,  0.662505980000000,  0.862271170000000 ]
    mass: 15.999400
    reduced_to: 11
  - symbol: O  # 12
    coordinates: [  0.362271170000000,  0.637728830000000,  0.162505980000000 ]
    mass: 15.999400
    reduced_to: 12
  - symbol: O  # 13
    coordinates: [  0.398966650000000,  0.601033350000000,  0.890740820000000 ]
    mass: 15.999400
    reduced_to: 13
  - symbol: O  # 14
    coordinates: [  0.390740820000000,  0.898966650000000,  0.101033350000000 ]
    mass: 15.999400
    reduced_to: 14
  - symbol: O  # 15
    coordinates: [  0.101033350000000,  0.609259180000000,  0.101033350000000 ]
    mass: 15.999400
    reduced_to: 15
  - symbol: O  # 16
    coordinates: [  0.101033350000000,  0.390740820000000,  0.898966650000000 ]
    mass: 15.999400
    reduced_to: 16
  - symbol: O  # 17
    coordinates: [  0.601033350000000,  0.398966650000000,  0.890740820000000 ]
    mass: 15.999400
    reduced_to: 17
  - symbol: O  # 18
    coordinates: [  0.898966650000000,  0.390740820000000,  0.101033350000000 ]
    mass: 15.999400
    reduced_to: 18
  - symbol: O  # 19
    coordinates: [  0.398966650000000,  0.109259180000000,  0.398966650000000 ]
    mass: 15.999400
    reduced_to: 19
  - symbol: O  # 20
    coordinates: [  0.390740820000000,  0.101033350000000,  0.898966650000000 ]
    mass: 15.999400
    reduced_to: 20
  - symbol: O  # 21
    coordinates: [  0.609259180000000,  0.101033350000000,  0.101033350000000 ]
    mass: 15.999400
    reduced_to: 21
  - symbol: O  # 22
    coordinates: [  0.398966650000000,  0.398966650000000,  0.109259180000000 ]
    mass: 15.999400
    reduced_to: 22
  - symbol: O  # 23
    coordinates: [  0.101033350000000,  0.101033350000000,  0.609259180000000 ]
    mass: 15.999400
    reduced_to: 23
  - symbol: O  # 24
    coordinates: [  0.109259180000000,  0.398966650000000,  0.398966650000000 ]
    mass: 15.999400
    reduced_to: 24
  - symbol: O  # 25
    coordinates: [  0.137728830000000,  0.862271170000000,  0.662505980000000 ]
    mass: 15.999400
    reduced_to: 1
  - symbol: O  # 26
    coordinates: [  0.162505980000000,  0.637728830000000,  0.362271170000000 ]
    mass: 15.999400
    reduced_to: 2
  - symbol: O  # 27
    coordinates: [  0.862271170000000,  0.337494020000000,  0.862271170000000 ]
    mass: 15.999400
    reduced_to: 3
  - symbol: O  # 28
    coordinates: [  0.362271170000000,  0.162505980000000,  0.637728830000000 ]
    mass: 15.999400
    reduced_to: 4
  - symbol: O  # 29
    coordinates: [  0.837494020000000,  0.637728830000000,  0.637728830000000 ]
    mass: 15.999400
    reduced_to: 5
  - symbol: O  # 30
    coordinates: [  0.862271170000000,  0.862271170000000,  0.337494020000000 ]
    mass: 15.999400
    reduced_to: 6
  - symbol: O  # 31
    coordinates: [  0.637728830000000,  0.637728830000000,  0.837494020000000 ]
    mass: 15.999400
    reduced_to: 7
  - symbol: O  # 32
    coordinates: [  0.337494020000000,  0.862271170000000,  0.862271170000000 ]
    mass: 15.999400
    reduced_to: 8
  - symbol: O  # 33
    coordinates: [  0.162505980000000,  0.362271170000000,  0.637728830000000 ]
    mass: 15.999400
    reduced_to: 9
  - symbol: O  # 34
    coordinates: [  0.637728830000000,  0.837494020000000,  0.637728830000000 ]
    mass: 15.999400
    reduced_to: 10
  - symbol: O  # 35
    coordinates: [  0.637728830000000,  0.162505980000000,  0.362271170000000 ]
    mass: 15.999400
    reduced_to: 11
  - symbol: O  # 36
    coordinates: [  0.862271170000000,  0.137728830000000,  0.662505980000000 ]
    mass: 15.999400
    reduced_to: 12
  - symbol: O  # 37
    coordinates: [  0.898966650000000,  0.101033350000000,  0.390740820000000 ]
    mass: 15.999400
    reduced_to: 13
  - symbol: O  # 38
    coordinates: [  0.890740820000000,  0.398966650000000,  0.601033350000000 ]
    mass: 15.999400
    reduced_to: 14
  - symbol: O  # 39
    coordinates: [  0.601033350000000,  0.109259180000000,  0.601033350000000 ]
    mass: 15.999400
    reduced_to: 15
  - symbol: O  # 40
    coordinates: [  0.601033350000000,  0.890740820000000,  0.398966650000000 ]
    mass: 15.999400
    reduced_to: 16
  - symbol: O  # 41
    coordinates: [  0.101033350000000,  0.898966650000000,  0.390740820000000 ]
    mass: 15.999400
    reduced_to: 17
  - symbol: O  # 42
    coordinates: [  0.398966650000000,  0.890740820000000,  0.601033350000000 ]
    mass: 15.999400
    reduced_to: 18
  - symbol: O  # 43
    coordinates: [  0.898966650000000,  0.609259180000000,  0.898966650000000 ]
    mass: 15.999400
    reduced_to: 19
  - symbol: O  # 44
    coordinates: [  0.890740820000000,  0.601033350000000,  0.398966650000000 ]
    mass: 15.999400
    reduced_to: 20
  - symbol: O  # 45
    coordinates: [  0.109259180000000,  0.601033350000000,  0.601033350000000 ]
    mass: 15.999400
    reduced_to: 21
  - symbol: O  # 46
    coordinates: [  0.898966650000000,  0.898966650000000,  0.609259180000000 ]
    mass: 15.999400
    reduced_to: 22
  - symbol: O  # 47
    coordinates: [  0.601033350000000,  0.601033350000000,  0.109259180000000 ]
    mass: 15.999400
    reduced_to: 23
  - symbol: O  # 48
    coordinates: [  0.609259180000000,  0.898966650000000,  0.898966650000000 ]
    mass: 15.999400
    reduced_to: 24
  - symbol: Sb # 49
    coordinates: [  0.243048550000000,  0.243048550000000,  0.756951450000000 ]
    mass: 121.760000
    reduced_to: 49
  - symbol: Sb # 50
    coordinates: [  0.256951450000000,  0.256951450000000,  0.256951450000000 ]
    mass: 121.760000
    reduced_to: 50
  - symbol: Sb # 51
    coordinates: [  0.756951450000000,  0.243048550000000,  0.243048550000000 ]
    mass: 121.760000
    reduced_to: 51
  - symbol: Sb # 52
    coordinates: [  0.743048550000000,  0.256951450000000,  0.743048550000000 ]
    mass: 121.760000
    reduced_to: 52
  - symbol: Sb # 53
    coordinates: [  0.000000000000000,  0.278051140000000,  0.000000000000000 ]
    mass: 121.760000
    reduced_to: 53
  - symbol: Sb # 54
    coordinates: [  0.000000000000000,  0.721948860000000,  0.000000000000000 ]
    mass: 121.760000
    reduced_to: 54
  - symbol: Sb # 55
    coordinates: [  0.500000000000000,  0.500000000000000,  0.778051140000000 ]
    mass: 121.760000
    reduced_to: 55
  - symbol: Sb # 56
    coordinates: [  0.500000000000000,  0.500000000000000,  0.221948860000000 ]
    mass: 121.760000
    reduced_to: 56
  - symbol: Sb # 57
    coordinates: [  0.721948860000000,  0.000000000000000,  0.000000000000000 ]
    mass: 121.760000
    reduced_to: 57
  - symbol: Sb # 58
    coordinates: [  0.278051140000000,  0.000000000000000,  0.000000000000000 ]
    mass: 121.760000
    reduced_to: 58
  - symbol: Sb # 59
    coordinates: [  0.743048550000000,  0.743048550000000,  0.256951450000000 ]
    mass: 121.760000
    reduced_to: 49
  - symbol: Sb # 60
    coordinates: [  0.756951450000000,  0.756951450000000,  0.756951450000000 ]
    mass: 121.760000
    reduced_to: 50
  - symbol: Sb # 61
    coordinates: [  0.256951450000000,  0.743048550000000,  0.743048550000000 ]
    mass: 121.760000
    reduced_to: 51
  - symbol: Sb # 62
    coordinates: [  0.243048550000000,  0.756951450000000,  0.243048550000000 ]
    mass: 121.760000
    reduced_to: 52
  - symbol: Sb # 63
    coordinates: [  0.500000000000000,  0.778051140000000,  0.500000000000000 ]
    mass: 121.760000
    reduced_to: 53
  - symbol: Sb # 64
    coordinates: [  0.500000000000000,  0.221948860000000,  0.500000000000000 ]
    mass: 121.760000
    reduced_to: 54
  - symbol: Sb # 65
    coordinates: [  0.000000000000000,  0.000000000000000,  0.278051140000000 ]
    mass: 121.760000
    reduced_to: 55
  - symbol: Sb # 66
    coordinates: [  0.000000000000000,  0.000000000000000,  0.721948860000000 ]
    mass: 121.760000
    reduced_to: 56
  - symbol: Sb # 67
    coordinates: [  0.221948860000000,  0.500000000000000,  0.500000000000000 ]
    mass: 121.760000
    reduced_to: 57
  - symbol: Sb # 68
    coordinates: [  0.778051140000000,  0.500000000000000,  0.500000000000000 ]
    mass: 121.760000
    reduced_to: 58
  - symbol: Sm # 69
    coordinates: [  0.500000000000000,  0.000000000000000,  0.250000000000000 ]
    mass: 150.360000
    reduced_to: 69
  - symbol: Sm # 70
    coordinates: [  0.250000000000000,  0.000000000000000,  0.500000000000000 ]
    mass: 150.360000
    reduced_to: 70
  - symbol: Sm # 71
    coordinates: [  0.250000000000000,  0.500000000000000,  0.000000000000000 ]
    mass: 150.360000
    reduced_to: 71
  - symbol: Sm # 72
    coordinates: [  0.500000000000000,  0.250000000000000,  0.000000000000000 ]
    mass: 150.360000
    reduced_to: 72
  - symbol: Sm # 73
    coordinates: [  0.000000000000000,  0.250000000000000,  0.500000000000000 ]
    mass: 150.360000
    reduced_to: 73
  - symbol: Sm # 74
    coordinates: [  0.000000000000000,  0.500000000000000,  0.250000000000000 ]
    mass: 150.360000
    reduced_to: 74
  - symbol: Sm # 75
    coordinates: [  0.000000000000000,  0.500000000000000,  0.750000000000000 ]
    mass: 150.360000
    reduced_to: 69
  - symbol: Sm # 76
    coordinates: [  0.750000000000000,  0.500000000000000,  0.000000000000000 ]
    mass: 150.360000
    reduced_to: 70
  - symbol: Sm # 77
    coordinates: [  0.750000000000000,  0.000000000000000,  0.500000000000000 ]
    mass: 150.360000
    reduced_to: 71
  - symbol: Sm # 78
    coordinates: [  0.000000000000000,  0.750000000000000,  0.500000000000000 ]
    mass: 150.360000
    reduced_to: 72
  - symbol: Sm # 79
    coordinates: [  0.500000000000000,  0.750000000000000,  0.000000000000000 ]
    mass: 150.360000
    reduced_to: 73
  - symbol: Sm # 80
    coordinates: [  0.500000000000000,  0.000000000000000,  0.750000000000000 ]
    mass: 150.360000
    reduced_to: 74

supercell:
  lattice:
  - [    10.857988980000000,     0.000000000000000,     0.000000000000000 ] # a
  - [     0.000000000000000,    10.857988980000000,     0.000000000000000 ] # b
  - [     0.000000000000000,     0.000000000000000,    10.857988980000000 ] # c
  points:
  - symbol: O  # 1
    coordinates: [  0.637728830000000,  0.362271170000000,  0.162505980000000 ]
    mass: 15.999400
    reduced_to: 1
  - symbol: O  # 2
    coordinates: [  0.662505980000000,  0.137728830000000,  0.862271170000000 ]
    mass: 15.999400
    reduced_to: 2
  - symbol: O  # 3
    coordinates: [  0.362271170000000,  0.837494020000000,  0.362271170000000 ]
    mass: 15.999400
    reduced_to: 3
  - symbol: O  # 4
    coordinates: [  0.862271170000000,  0.662505980000000,  0.137728830000000 ]
    mass: 15.999400
    reduced_to: 4
  - symbol: O  # 5
    coordinates: [  0.337494020000000,  0.137728830000000,  0.137728830000000 ]
    mass: 15.999400
    reduced_to: 5
  - symbol: O  # 6
    coordinates: [  0.362271170000000,  0.362271170000000,  0.837494020000000 ]
    mass: 15.999400
    reduced_to: 6
  - symbol: O  # 7
    coordinates: [  0.137728830000000,  0.137728830000000,  0.337494020000000 ]
    mass: 15.999400
    reduced_to: 7
  - symbol: O  # 8
    coordinates: [  0.837494020000000,  0.362271170000000,  0.362271170000000 ]
    mass: 15.999400
    reduced_to: 8
  - symbol: O  # 9
    coordinates: [  0.662505980000000,  0.862271170000000,  0.137728830000000 ]
    mass: 15.999400
    reduced_to: 9
  - symbol: O  # 10
    coordinates: [  0.137728830000000,  0.337494020000000,  0.137728830000000 ]
    mass: 15.999400
    reduced_to: 10
  - symbol: O  # 11
    coordinates: [  0.137728830000000,  0.662505980000000,  0.862271170000000 ]
    mass: 15.999400
    reduced_to: 11
  - symbol: O  # 12
    coordinates: [  0.362271170000000,  0.637728830000000,  0.162505980000000 ]
    mass: 15.999400
    reduced_to: 12
  - symbol: O  # 13
    coordinates: [  0.398966650000000,  0.601033350000000,  0.890740820000000 ]
    mass: 15.999400
    reduced_to: 13
  - symbol: O  # 14
    coordinates: [  0.390740820000000,  0.898966650000000,  0.101033350000000 ]
    mass: 15.999400
    reduced_to: 14
  - symbol: O  # 15
    coordinates: [  0.101033350000000,  0.609259180000000,  0.101033350000000 ]
    mass: 15.999400
    reduced_to: 15
  - symbol: O  # 16
    coordinates: [  0.101033350000000,  0.390740820000000,  0.898966650000000 ]
    mass: 15.999400
    reduced_to: 16
  - symbol: O  # 17
    coordinates: [  0.601033350000000,  0.398966650000000,  0.890740820000000 ]
    mass: 15.999400
    reduced_to: 17
  - symbol: O  # 18
    coordinates: [  0.898966650000000,  0.390740820000000,  0.101033350000000 ]
    mass: 15.999400
    reduced_to: 18
  - symbol: O  # 19
    coordinates: [  0.398966650000000,  0.109259180000000,  0.398966650000000 ]
    mass: 15.999400
    reduced_to: 19
  - symbol: O  # 20
    coordinates: [  0.390740820000000,  0.101033350000000,  0.898966650000000 ]
    mass: 15.999400
    reduced_to: 20
  - symbol: O  # 21
    coordinates: [  0.609259180000000,  0.101033350000000,  0.101033350000000 ]
    mass: 15.999400
    reduced_to: 21
  - symbol: O  # 22
    coordinates: [  0.398966650000000,  0.398966650000000,  0.109259180000000 ]
    mass: 15.999400
    reduced_to: 22
  - symbol: O  # 23
    coordinates: [  0.101033350000000,  0.101033350000000,  0.609259180000000 ]
    mass: 15.999400
    reduced_to: 23
  - symbol: O  # 24
    coordinates: [  0.109259180000000,  0.398966650000000,  0.398966650000000 ]
    mass: 15.999400
    reduced_to: 24
  - symbol: O  # 25
    coordinates: [  0.137728830000000,  0.862271170000000,  0.662505980000000 ]
    mass: 15.999400
    reduced_to: 1
  - symbol: O  # 26
    coordinates: [  0.162505980000000,  0.637728830000000,  0.362271170000000 ]
    mass: 15.999400
    reduced_to: 2
  - symbol: O  # 27
    coordinates: [  0.862271170000000,  0.337494020000000,  0.862271170000000 ]
    mass: 15.999400
    reduced_to: 3
  - symbol: O  # 28
    coordinates: [  0.362271170000000,  0.162505980000000,  0.637728830000000 ]
    mass: 15.999400
    reduced_to: 4
  - symbol: O  # 29
    coordinates: [  0.837494020000000,  0.637728830000000,  0.637728830000000 ]
    mass: 15.999400
    reduced_to: 5
  - symbol: O  # 30
    coordinates: [  0.862271170000000,  0.862271170000000,  0.337494020000000 ]
    mass: 15.999400
    reduced_to: 6
  - symbol: O  # 31
    coordinates: [  0.637728830000000,  0.637728830000000,  0.837494020000000 ]
    mass: 15.999400
    reduced_to: 7
  - symbol: O  # 32
    coordinates: [  0.337494020000000,  0.862271170000000,  0.862271170000000 ]
    mass: 15.999400
    reduced_to: 8
  - symbol: O  # 33
    coordinates: [  0.162505980000000,  0.362271170000000,  0.637728830000000 ]
    mass: 15.999400
    reduced_to: 9
  - symbol: O  # 34
    coordinates: [  0.637728830000000,  0.837494020000000,  0.637728830000000 ]
    mass: 15.999400
    reduced_to: 10
  - symbol: O  # 35
    coordinates: [  0.637728830000000,  0.162505980000000,  0.362271170000000 ]
    mass: 15.999400
    reduced_to: 11
  - symbol: O  # 36
    coordinates: [  0.862271170000000,  0.137728830000000,  0.662505980000000 ]
    mass: 15.999400
    reduced_to: 12
  - symbol: O  # 37
    coordinates: [  0.898966650000000,  0.101033350000000,  0.390740820000000 ]
    mass: 15.999400
    reduced_to: 13
  - symbol: O  # 38
    coordinates: [  0.890740820000000,  0.398966650000000,  0.601033350000000 ]
    mass: 15.999400
    reduced_to: 14
  - symbol: O  # 39
    coordinates: [  0.601033350000000,  0.109259180000000,  0.601033350000000 ]
    mass: 15.999400
    reduced_to: 15
  - symbol: O  # 40
    coordinates: [  0.601033350000000,  0.890740820000000,  0.398966650000000 ]
    mass: 15.999400
    reduced_to: 16
  - symbol: O  # 41
    coordinates: [  0.101033350000000,  0.898966650000000,  0.390740820000000 ]
    mass: 15.999400
    reduced_to: 17
  - symbol: O  # 42
    coordinates: [  0.398966650000000,  0.890740820000000,  0.601033350000000 ]
    mass: 15.999400
    reduced_to: 18
  - symbol: O  # 43
    coordinates: [  0.898966650000000,  0.609259180000000,  0.898966650000000 ]
    mass: 15.999400
    reduced_to: 19
  - symbol: O  # 44
    coordinates: [  0.890740820000000,  0.601033350000000,  0.398966650000000 ]
    mass: 15.999400
    reduced_to: 20
  - symbol: O  # 45
    coordinates: [  0.109259180000000,  0.601033350000000,  0.601033350000000 ]
    mass: 15.999400
    reduced_to: 21
  - symbol: O  # 46
    coordinates: [  0.898966650000000,  0.898966650000000,  0.609259180000000 ]
    mass: 15.999400
    reduced_to: 22
  - symbol: O  # 47
    coordinates: [  0.601033350000000,  0.601033350000000,  0.109259180000000 ]
    mass: 15.999400
    reduced_to: 23
  - symbol: O  # 48
    coordinates: [  0.609259180000000,  0.898966650000000,  0.898966650000000 ]
    mass: 15.999400
    reduced_to: 24
  - symbol: Sb # 49
    coordinates: [  0.243048550000000,  0.243048550000000,  0.756951450000000 ]
    mass: 121.760000
    reduced_to: 49
  - symbol: Sb # 50
    coordinates: [  0.256951450000000,  0.256951450000000,  0.256951450000000 ]
    mass: 121.760000
    reduced_to: 50
  - symbol: Sb # 51
    coordinates: [  0.756951450000000,  0.243048550000000,  0.243048550000000 ]
    mass: 121.760000
    reduced_to: 51
  - symbol: Sb # 52
    coordinates: [  0.743048550000000,  0.256951450000000,  0.743048550000000 ]
    mass: 121.760000
    reduced_to: 52
  - symbol: Sb # 53
    coordinates: [  0.000000000000000,  0.278051140000000,  0.000000000000000 ]
    mass: 121.760000
    reduced_to: 53
  - symbol: Sb # 54
    coordinates: [  0.000000000000000,  0.721948860000000,  0.000000000000000 ]
    mass: 121.760000
    reduced_to: 54
  - symbol: Sb # 55
    coordinates: [  0.500000000000000,  0.500000000000000,  0.778051140000000 ]
    mass: 121.760000
    reduced_to: 55
  - symbol: Sb # 56
    coordinates: [  0.500000000000000,  0.500000000000000,  0.221948860000000 ]
    mass: 121.760000
    reduced_to: 56
  - symbol: Sb # 57
    coordinates: [  0.721948860000000,  0.000000000000000,  0.000000000000000 ]
    mass: 121.760000
    reduced_to: 57
  - symbol: Sb # 58
    coordinates: [  0.278051140000000,  0.000000000000000,  0.000000000000000 ]
    mass: 121.760000
    reduced_to: 58
  - symbol: Sb # 59
    coordinates: [  0.743048550000000,  0.743048550000000,  0.256951450000000 ]
    mass: 121.760000
    reduced_to: 49
  - symbol: Sb # 60
    coordinates: [  0.756951450000000,  0.756951450000000,  0.756951450000000 ]
    mass: 121.760000
    reduced_to: 50
  - symbol: Sb # 61
    coordinates: [  0.256951450000000,  0.743048550000000,  0.743048550000000 ]
    mass: 121.760000
    reduced_to: 51
  - symbol: Sb # 62
    coordinates: [  0.243048550000000,  0.756951450000000,  0.243048550000000 ]
    mass: 121.760000
    reduced_to: 52
  - symbol: Sb # 63
    coordinates: [  0.500000000000000,  0.778051140000000,  0.500000000000000 ]
    mass: 121.760000
    reduced_to: 53
  - symbol: Sb # 64
    coordinates: [  0.500000000000000,  0.221948860000000,  0.500000000000000 ]
    mass: 121.760000
    reduced_to: 54
  - symbol: Sb # 65
    coordinates: [  0.000000000000000,  0.000000000000000,  0.278051140000000 ]
    mass: 121.760000
    reduced_to: 55
  - symbol: Sb # 66
    coordinates: [  0.000000000000000,  0.000000000000000,  0.721948860000000 ]
    mass: 121.760000
    reduced_to: 56
  - symbol: Sb # 67
    coordinates: [  0.221948860000000,  0.500000000000000,  0.500000000000000 ]
    mass: 121.760000
    reduced_to: 57
  - symbol: Sb # 68
    coordinates: [  0.778051140000000,  0.500000000000000,  0.500000000000000 ]
    mass: 121.760000
    reduced_to: 58
  - symbol: Sm # 69
    coordinates: [  0.500000000000000,  0.000000000000000,  0.250000000000000 ]
    mass: 150.360000
    reduced_to: 69
  - symbol: Sm # 70
    coordinates: [  0.250000000000000,  0.000000000000000,  0.500000000000000 ]
    mass: 150.360000
    reduced_to: 70
  - symbol: Sm # 71
    coordinates: [  0.250000000000000,  0.500000000000000,  0.000000000000000 ]
    mass: 150.360000
    reduced_to: 71
  - symbol: Sm # 72
    coordinates: [  0.500000000000000,  0.250000000000000,  0.000000000000000 ]
    mass: 150.360000
    reduced_to: 72
  - symbol: Sm # 73
    coordinates: [  0.000000000000000,  0.250000000000000,  0.500000000000000 ]
    mass: 150.360000
    reduced_to: 73
  - symbol: Sm # 74
    coordinates: [  0.000000000000000,  0.500000000000000,  0.250000000000000 ]
    mass: 150.360000
    reduced_to: 74
  - symbol: Sm # 75
    coordinates: [  0.000000000000000,  0.500000000000000,  0.750000000000000 ]
    mass: 150.360000
    reduced_to: 69
  - symbol: Sm # 76
    coordinates: [  0.750000000000000,  0.500000000000000,  0.000000000000000 ]
    mass: 150.360000
    reduced_to: 70
  - symbol: Sm # 77
    coordinates: [  0.750000000000000,  0.000000000000000,  0.500000000000000 ]
    mass: 150.360000
    reduced_to: 71
  - symbol: Sm # 78
    coordinates: [  0.000000000000000,  0.750000000000000,  0.500000000000000 ]
    mass: 150.360000
    reduced_to: 72
  - symbol: Sm # 79
    coordinates: [  0.500000000000000,  0.750000000000000,  0.000000000000000 ]
    mass: 150.360000
    reduced_to: 73
  - symbol: Sm # 80
    coordinates: [  0.500000000000000,  0.000000000000000,  0.750000000000000 ]
    mass: 150.360000
    reduced_to: 74
