# epsilon and Z* of atoms 1 2 4 11 13 17
  10.24014763    0.00000000   -0.01837289    0.00000000   10.92803801    0.00000000   -0.01839746    0.00000000    9.64061184 
   3.42223488    0.00000000   -0.16134177    0.00000000    1.27740232    0.00000000   -0.00939671    0.00000000    2.96113229 
   1.78780021    0.00000000    0.14064949    0.00000000    2.90435478    0.00000000    0.03934223    0.00000000    2.92782708 
   2.39598962    0.00000000    0.04705998    0.00000000    2.44989957    0.00000000    0.00169600    0.00000000    1.74972248 
  -3.24695269    0.00000000    0.39736692    0.00000000   -2.33561842    0.00000000    0.57385995    0.00000000   -2.39188172 
  -2.57036631    0.47310840   -0.20513545    0.49063208   -3.04139036    0.44291485   -0.28842687    0.46643821   -2.43674809 
   2.49277804    0.00000000   -0.09413461    0.00000000    2.42544362    0.00000000   -0.03334608    0.00000000    1.10726219 
