natom:  104
displacements:
- atom:    1
  displacement:
    [   0.0099999965536197,  0.0000000000000000,  0.0000083022643510 ]
- atom:    1
  displacement:
    [   0.0000000000000000,  0.0100000000000000,  0.0000000000000000 ]
- atom:    1
  displacement:
    [  -0.0031196594084859,  0.0000000000000000,  0.0095009328581485 ]
- atom:    5
  displacement:
    [   0.0099999965536197,  0.0000000000000000,  0.0000083022643510 ]
- atom:    5
  displacement:
    [   0.0000000000000000,  0.0100000000000000,  0.0000000000000000 ]
- atom:    5
  displacement:
    [   0.0000000000000000, -0.0100000000000000,  0.0000000000000000 ]
- atom:    5
  displacement:
    [  -0.0031196594084859,  0.0000000000000000,  0.0095009328581485 ]
- atom:   13
  displacement:
    [   0.0099999965536197,  0.0000000000000000,  0.0000083022643510 ]
- atom:   13
  displacement:
    [   0.0000000000000000,  0.0100000000000000,  0.0000000000000000 ]
- atom:   13
  displacement:
    [   0.0000000000000000, -0.0100000000000000,  0.0000000000000000 ]
- atom:   13
  displacement:
    [  -0.0031196594084859,  0.0000000000000000,  0.0095009328581485 ]
- atom:   41
  displacement:
    [   0.0099999965536197,  0.0000000000000000,  0.0000083022643510 ]
- atom:   41
  displacement:
    [  -0.0099999965536197,  0.0000000000000000, -0.0000083022643510 ]
- atom:   41
  displacement:
    [   0.0000000000000000,  0.0100000000000000,  0.0000000000000000 ]
- atom:   41
  displacement:
    [  -0.0031196594084859,  0.0000000000000000,  0.0095009328581485 ]
- atom:   41
  displacement:
    [   0.0031196594084859,  0.0000000000000000, -0.0095009328581485 ]
- atom:   49
  displacement:
    [   0.0099999965536197,  0.0000000000000000,  0.0000083022643510 ]
- atom:   49
  displacement:
    [  -0.0099999965536197,  0.0000000000000000, -0.0000083022643510 ]
- atom:   49
  displacement:
    [   0.0000000000000000,  0.0100000000000000,  0.0000000000000000 ]
- atom:   49
  displacement:
    [   0.0000000000000000, -0.0100000000000000,  0.0000000000000000 ]
- atom:   49
  displacement:
    [  -0.0031196594084859,  0.0000000000000000,  0.0095009328581485 ]
- atom:   49
  displacement:
    [   0.0031196594084859,  0.0000000000000000, -0.0095009328581485 ]
- atom:   65
  displacement:
    [   0.0099999965536197,  0.0000000000000000,  0.0000083022643510 ]
- atom:   65
  displacement:
    [  -0.0099999965536197,  0.0000000000000000, -0.0000083022643510 ]
- atom:   65
  displacement:
    [   0.0000000000000000,  0.0100000000000000,  0.0000000000000000 ]
- atom:   65
  displacement:
    [  -0.0031196594084859,  0.0000000000000000,  0.0095009328581485 ]
- atom:   65
  displacement:
    [   0.0031196594084859,  0.0000000000000000, -0.0095009328581485 ]
lattice:
- [    13.6710126400000007,     0.0000000000000000,     0.0113500400000000 ] # a
- [     0.0000000000000000,    11.7837054999999999,     0.0000000000000000 ] # b
- [    -4.6128998200000000,     0.0000000000000000,    14.0486013799999991 ] # c
atoms:
- symbol: Ca # 1
  position: [  0.2500000000000000,  0.0000000000000000,  0.2500000000000000 ]
  mass: 40.078000
- symbol: Ca # 2
  position: [  0.7500000000000000,  0.0000000000000000,  0.2500000000000000 ]
  mass: 40.078000
- symbol: Ca # 3
  position: [  0.2500000000000000,  0.0000000000000000,  0.7500000000000000 ]
  mass: 40.078000
- symbol: Ca # 4
  position: [  0.7500000000000000,  0.0000000000000000,  0.7500000000000000 ]
  mass: 40.078000
- symbol: Ca # 5
  position: [  0.2500000000000000,  0.6756536200000000,  0.2500000000000000 ]
  mass: 40.078000
- symbol: Ca # 6
  position: [  0.7500000000000000,  0.6756536200000000,  0.2500000000000000 ]
  mass: 40.078000
- symbol: Ca # 7
  position: [  0.2500000000000000,  0.6756536200000000,  0.7500000000000000 ]
  mass: 40.078000
- symbol: Ca # 8
  position: [  0.7500000000000000,  0.6756536200000000,  0.7500000000000000 ]
  mass: 40.078000
- symbol: Ca # 9
  position: [  0.2500000000000000,  0.3243463800000000,  0.2500000000000000 ]
  mass: 40.078000
- symbol: Ca # 10
  position: [  0.7500000000000000,  0.3243463800000000,  0.2500000000000000 ]
  mass: 40.078000
- symbol: Ca # 11
  position: [  0.2500000000000000,  0.3243463800000000,  0.7500000000000000 ]
  mass: 40.078000
- symbol: Ca # 12
  position: [  0.7500000000000000,  0.3243463800000000,  0.7500000000000000 ]
  mass: 40.078000
- symbol: Ca # 13
  position: [  0.2500000000000000,  0.1652076500000000,  0.0000000000000000 ]
  mass: 40.078000
- symbol: Ca # 14
  position: [  0.7500000000000000,  0.1652076500000000,  0.0000000000000000 ]
  mass: 40.078000
- symbol: Ca # 15
  position: [  0.2500000000000000,  0.1652076500000000,  0.5000000000000000 ]
  mass: 40.078000
- symbol: Ca # 16
  position: [  0.7500000000000000,  0.1652076500000000,  0.5000000000000000 ]
  mass: 40.078000
- symbol: Ca # 17
  position: [  0.2500000000000000,  0.8347923500000000,  0.0000000000000000 ]
  mass: 40.078000
- symbol: Ca # 18
  position: [  0.7500000000000000,  0.8347923500000000,  0.0000000000000000 ]
  mass: 40.078000
- symbol: Ca # 19
  position: [  0.2500000000000000,  0.8347923500000000,  0.5000000000000000 ]
  mass: 40.078000
- symbol: Ca # 20
  position: [  0.7500000000000000,  0.8347923500000000,  0.5000000000000000 ]
  mass: 40.078000
- symbol: Ca # 21
  position: [  0.0000000000000000,  0.5000000000000000,  0.2500000000000000 ]
  mass: 40.078000
- symbol: Ca # 22
  position: [  0.5000000000000000,  0.5000000000000000,  0.2500000000000000 ]
  mass: 40.078000
- symbol: Ca # 23
  position: [  0.0000000000000000,  0.5000000000000000,  0.7500000000000000 ]
  mass: 40.078000
- symbol: Ca # 24
  position: [  0.5000000000000000,  0.5000000000000000,  0.7500000000000000 ]
  mass: 40.078000
- symbol: Ca # 25
  position: [  0.0000000000000000,  0.1756536200000000,  0.2500000000000000 ]
  mass: 40.078000
- symbol: Ca # 26
  position: [  0.5000000000000000,  0.1756536200000000,  0.2500000000000000 ]
  mass: 40.078000
- symbol: Ca # 27
  position: [  0.0000000000000000,  0.1756536200000000,  0.7500000000000000 ]
  mass: 40.078000
- symbol: Ca # 28
  position: [  0.5000000000000000,  0.1756536200000000,  0.7500000000000000 ]
  mass: 40.078000
- symbol: Ca # 29
  position: [  0.0000000000000000,  0.8243463800000000,  0.2500000000000000 ]
  mass: 40.078000
- symbol: Ca # 30
  position: [  0.5000000000000000,  0.8243463800000000,  0.2500000000000000 ]
  mass: 40.078000
- symbol: Ca # 31
  position: [  0.0000000000000000,  0.8243463800000000,  0.7500000000000000 ]
  mass: 40.078000
- symbol: Ca # 32
  position: [  0.5000000000000000,  0.8243463800000000,  0.7500000000000000 ]
  mass: 40.078000
- symbol: Ca # 33
  position: [  0.0000000000000000,  0.6652076500000000,  0.0000000000000000 ]
  mass: 40.078000
- symbol: Ca # 34
  position: [  0.5000000000000000,  0.6652076500000000,  0.0000000000000000 ]
  mass: 40.078000
- symbol: Ca # 35
  position: [  0.0000000000000000,  0.6652076500000000,  0.5000000000000000 ]
  mass: 40.078000
- symbol: Ca # 36
  position: [  0.5000000000000000,  0.6652076500000000,  0.5000000000000000 ]
  mass: 40.078000
- symbol: Ca # 37
  position: [  0.0000000000000000,  0.3347923500000000,  0.0000000000000000 ]
  mass: 40.078000
- symbol: Ca # 38
  position: [  0.5000000000000000,  0.3347923500000000,  0.0000000000000000 ]
  mass: 40.078000
- symbol: Ca # 39
  position: [  0.0000000000000000,  0.3347923500000000,  0.5000000000000000 ]
  mass: 40.078000
- symbol: Ca # 40
  position: [  0.5000000000000000,  0.3347923500000000,  0.5000000000000000 ]
  mass: 40.078000
- symbol: P  # 41
  position: [  0.1123969000000000,  0.0000000000000000,  0.3780158900000000 ]
  mass: 30.973762
- symbol: P  # 42
  position: [  0.6123969000000000,  0.0000000000000000,  0.3780158900000000 ]
  mass: 30.973762
- symbol: P  # 43
  position: [  0.1123969000000000,  0.0000000000000000,  0.8780158900000000 ]
  mass: 30.973762
- symbol: P  # 44
  position: [  0.6123969000000000,  0.0000000000000000,  0.8780158900000000 ]
  mass: 30.973762
- symbol: P  # 45
  position: [  0.3876031000000000,  0.0000000000000000,  0.1219841100000000 ]
  mass: 30.973762
- symbol: P  # 46
  position: [  0.8876031000000000,  0.0000000000000000,  0.1219841100000000 ]
  mass: 30.973762
- symbol: P  # 47
  position: [  0.3876031000000000,  0.0000000000000000,  0.6219841100000000 ]
  mass: 30.973762
- symbol: P  # 48
  position: [  0.8876031000000000,  0.0000000000000000,  0.6219841100000000 ]
  mass: 30.973762
- symbol: P  # 49
  position: [  0.3835212950000000,  0.1540543000000000,  0.3800557450000000 ]
  mass: 30.973762
- symbol: P  # 50
  position: [  0.8835212950000000,  0.1540543000000000,  0.3800557450000000 ]
  mass: 30.973762
- symbol: P  # 51
  position: [  0.3835212950000000,  0.1540543000000000,  0.8800557449999999 ]
  mass: 30.973762
- symbol: P  # 52
  position: [  0.8835212950000000,  0.1540543000000000,  0.8800557449999999 ]
  mass: 30.973762
- symbol: P  # 53
  position: [  0.1164787050000000,  0.1540543000000000,  0.1199442550000000 ]
  mass: 30.973762
- symbol: P  # 54
  position: [  0.6164787050000000,  0.1540543000000000,  0.1199442550000000 ]
  mass: 30.973762
- symbol: P  # 55
  position: [  0.1164787050000000,  0.1540543000000000,  0.6199442550000001 ]
  mass: 30.973762
- symbol: P  # 56
  position: [  0.6164787050000000,  0.1540543000000000,  0.6199442550000001 ]
  mass: 30.973762
- symbol: P  # 57
  position: [  0.1164787050000000,  0.8459457000000000,  0.1199442550000000 ]
  mass: 30.973762
- symbol: P  # 58
  position: [  0.6164787050000000,  0.8459457000000000,  0.1199442550000000 ]
  mass: 30.973762
- symbol: P  # 59
  position: [  0.1164787050000000,  0.8459457000000000,  0.6199442550000001 ]
  mass: 30.973762
- symbol: P  # 60
  position: [  0.6164787050000000,  0.8459457000000000,  0.6199442550000001 ]
  mass: 30.973762
- symbol: P  # 61
  position: [  0.3835212950000000,  0.8459457000000000,  0.3800557450000000 ]
  mass: 30.973762
- symbol: P  # 62
  position: [  0.8835212950000000,  0.8459457000000000,  0.3800557450000000 ]
  mass: 30.973762
- symbol: P  # 63
  position: [  0.3835212950000000,  0.8459457000000000,  0.8800557449999999 ]
  mass: 30.973762
- symbol: P  # 64
  position: [  0.8835212950000000,  0.8459457000000000,  0.8800557449999999 ]
  mass: 30.973762
- symbol: P  # 65
  position: [  0.4736512150000000,  0.0000000000000000,  0.4176780850000000 ]
  mass: 30.973762
- symbol: P  # 66
  position: [  0.9736512150000001,  0.0000000000000000,  0.4176780850000000 ]
  mass: 30.973762
- symbol: P  # 67
  position: [  0.4736512150000000,  0.0000000000000000,  0.9176780849999999 ]
  mass: 30.973762
- symbol: P  # 68
  position: [  0.9736512150000001,  0.0000000000000000,  0.9176780849999999 ]
  mass: 30.973762
- symbol: P  # 69
  position: [  0.0263487850000000,  0.0000000000000000,  0.0823219150000000 ]
  mass: 30.973762
- symbol: P  # 70
  position: [  0.5263487850000000,  0.0000000000000000,  0.0823219150000000 ]
  mass: 30.973762
- symbol: P  # 71
  position: [  0.0263487850000000,  0.0000000000000000,  0.5823219150000000 ]
  mass: 30.973762
- symbol: P  # 72
  position: [  0.5263487850000000,  0.0000000000000000,  0.5823219150000000 ]
  mass: 30.973762
- symbol: P  # 73
  position: [  0.3623969000000000,  0.5000000000000000,  0.3780158900000000 ]
  mass: 30.973762
- symbol: P  # 74
  position: [  0.8623969000000000,  0.5000000000000000,  0.3780158900000000 ]
  mass: 30.973762
- symbol: P  # 75
  position: [  0.3623969000000000,  0.5000000000000000,  0.8780158900000000 ]
  mass: 30.973762
- symbol: P  # 76
  position: [  0.8623969000000000,  0.5000000000000000,  0.8780158900000000 ]
  mass: 30.973762
- symbol: P  # 77
  position: [  0.1376031000000000,  0.5000000000000000,  0.1219841100000000 ]
  mass: 30.973762
- symbol: P  # 78
  position: [  0.6376031000000000,  0.5000000000000000,  0.1219841100000000 ]
  mass: 30.973762
- symbol: P  # 79
  position: [  0.1376031000000000,  0.5000000000000000,  0.6219841100000000 ]
  mass: 30.973762
- symbol: P  # 80
  position: [  0.6376031000000000,  0.5000000000000000,  0.6219841100000000 ]
  mass: 30.973762
- symbol: P  # 81
  position: [  0.1335212950000000,  0.6540543000000000,  0.3800557450000000 ]
  mass: 30.973762
- symbol: P  # 82
  position: [  0.6335212950000000,  0.6540543000000000,  0.3800557450000000 ]
  mass: 30.973762
- symbol: P  # 83
  position: [  0.1335212950000000,  0.6540543000000000,  0.8800557449999999 ]
  mass: 30.973762
- symbol: P  # 84
  position: [  0.6335212950000000,  0.6540543000000000,  0.8800557449999999 ]
  mass: 30.973762
- symbol: P  # 85
  position: [  0.3664787050000000,  0.6540543000000000,  0.1199442550000000 ]
  mass: 30.973762
- symbol: P  # 86
  position: [  0.8664787050000000,  0.6540543000000000,  0.1199442550000000 ]
  mass: 30.973762
- symbol: P  # 87
  position: [  0.3664787050000000,  0.6540543000000000,  0.6199442550000001 ]
  mass: 30.973762
- symbol: P  # 88
  position: [  0.8664787050000000,  0.6540543000000000,  0.6199442550000001 ]
  mass: 30.973762
- symbol: P  # 89
  position: [  0.3664787050000000,  0.3459457000000000,  0.1199442550000000 ]
  mass: 30.973762
- symbol: P  # 90
  position: [  0.8664787050000000,  0.3459457000000000,  0.1199442550000000 ]
  mass: 30.973762
- symbol: P  # 91
  position: [  0.3664787050000000,  0.3459457000000000,  0.6199442550000001 ]
  mass: 30.973762
- symbol: P  # 92
  position: [  0.8664787050000000,  0.3459457000000000,  0.6199442550000001 ]
  mass: 30.973762
- symbol: P  # 93
  position: [  0.1335212950000000,  0.3459457000000000,  0.3800557450000000 ]
  mass: 30.973762
- symbol: P  # 94
  position: [  0.6335212950000000,  0.3459457000000000,  0.3800557450000000 ]
  mass: 30.973762
- symbol: P  # 95
  position: [  0.1335212950000000,  0.3459457000000000,  0.8800557449999999 ]
  mass: 30.973762
- symbol: P  # 96
  position: [  0.6335212950000000,  0.3459457000000000,  0.8800557449999999 ]
  mass: 30.973762
- symbol: P  # 97
  position: [  0.2236512150000000,  0.5000000000000000,  0.4176780850000000 ]
  mass: 30.973762
- symbol: P  # 98
  position: [  0.7236512150000000,  0.5000000000000000,  0.4176780850000000 ]
  mass: 30.973762
- symbol: P  # 99
  position: [  0.2236512150000000,  0.5000000000000000,  0.9176780849999999 ]
  mass: 30.973762
- symbol: P  # 100
  position: [  0.7236512150000000,  0.5000000000000000,  0.9176780849999999 ]
  mass: 30.973762
- symbol: P  # 101
  position: [  0.2763487850000000,  0.5000000000000000,  0.0823219150000000 ]
  mass: 30.973762
- symbol: P  # 102
  position: [  0.7763487849999999,  0.5000000000000000,  0.0823219150000000 ]
  mass: 30.973762
- symbol: P  # 103
  position: [  0.2763487850000000,  0.5000000000000000,  0.5823219150000000 ]
  mass: 30.973762
- symbol: P  # 104
  position: [  0.7763487849999999,  0.5000000000000000,  0.5823219150000000 ]
  mass: 30.973762