104  
27   

1    
  0.0099999965536197   0.0000000000000000   0.0000083022643510
  -0.0361224600    0.0000000000   -0.0232970700
   0.0014836000    0.0000000000    0.0004464100
  -0.0009512700    0.0000000000   -0.0003146100
   0.0011596200    0.0000000000    0.0002802700
  -0.0019056700   -0.0079805000   -0.0011314500
   0.0005792300   -0.0079951100    0.0005254600
  -0.0003421900   -0.0079943000   -0.0002808200
   0.0003779600   -0.0079935000    0.0003479500
  -0.0019056700    0.0079805000   -0.0011314500
   0.0005792300    0.0079951100    0.0005254600
  -0.0003421900    0.0079943000   -0.0002808200
   0.0003779600    0.0079935000    0.0003479500
  -0.0019345500    0.0007153300   -0.0008908200
   0.0008440100   -0.0003201700    0.0000239400
  -0.0019219100   -0.0011634900   -0.0008928500
   0.0008432800   -0.0001286600    0.0000265200
  -0.0019345500   -0.0007153300   -0.0008908200
   0.0008440100    0.0003201700    0.0000239400
  -0.0019219100    0.0011634900   -0.0008928500
   0.0008432800    0.0001286600    0.0000265200
   0.0001548300    0.0000000000   -0.0000058800
   0.0001552300    0.0000000000   -0.0000049400
   0.0000073000    0.0000000000    0.0000395100
   0.0000074100    0.0000000000    0.0000388900
   0.0034016200   -0.0109229200    0.0006659900
   0.0034466400   -0.0050243000    0.0006766500
  -0.0000883500   -0.0083837400   -0.0000121700
  -0.0000865900   -0.0076053900   -0.0000119300
   0.0034016200    0.0109229200    0.0006659900
   0.0034466400    0.0050243000    0.0006766500
  -0.0000883500    0.0083837400   -0.0000121700
  -0.0000865900    0.0076053900   -0.0000119300
   0.0003174100    0.0004524200    0.0004925800
   0.0000479100   -0.0006760900   -0.0001343900
   0.0000471400    0.0002241700   -0.0001329100
   0.0003172800   -0.0008980000    0.0004935800
   0.0003174100   -0.0004524200    0.0004925800
   0.0000479100    0.0006760900   -0.0001343900
   0.0000471400   -0.0002241700   -0.0001329100
   0.0003172800    0.0008980000    0.0004935800
  -0.0527777100    0.0000000000   -0.0284178300
  -0.0544227500    0.0000000000   -0.0266887900
  -0.0528580300    0.0000000000   -0.0265295100
  -0.0545397700    0.0000000000   -0.0252300600
   0.0545515600    0.0000000000    0.0238559900
   0.0526900400    0.0000000000    0.0257093800
   0.0542504300    0.0000000000    0.0258670300
   0.0525694100    0.0000000000    0.0271677200
   0.0217515000    0.0151302000    0.0046801200
   0.0156165500    0.0106590600   -0.0000050800
   0.0176838700    0.0096988900    0.0005407500
   0.0169500500    0.0105722700   -0.0006020900
  -0.0130202000    0.0049839100    0.0046377900
  -0.0191509800    0.0093903500    0.0000272300
  -0.0170749100    0.0103529500    0.0005692300
  -0.0178095400    0.0094782000   -0.0005681700
  -0.0130202000   -0.0049839100    0.0046377900
  -0.0191509800   -0.0093903500    0.0000272300
  -0.0170749100   -0.0103529500    0.0005692300
  -0.0178095400   -0.0094782000   -0.0005681700
   0.0217515000   -0.0151302000    0.0046801200
   0.0156165500   -0.0106590600   -0.0000050800
   0.0176838700   -0.0096988900    0.0005407500
   0.0169500500   -0.0105722700   -0.0006020900
   0.0443990200    0.0000000000   -0.0079220300
   0.0448812000    0.0000000000   -0.0106343300
   0.0386220400    0.0000000000   -0.0123509400
   0.0388712200    0.0000000000   -0.0095553300
  -0.0347784000    0.0000000000    0.0144839000
  -0.0342285500    0.0000000000    0.0118072900
  -0.0405203600    0.0000000000    0.0101211200
  -0.0402648800    0.0000000000    0.0129207100
  -0.0530132900    0.0000000000   -0.0260460000
  -0.0540034700    0.0000000000   -0.0262504500
  -0.0533186700    0.0000000000   -0.0260779500
  -0.0538243200    0.0000000000   -0.0264130700
   0.0541010000    0.0000000000    0.0263506500
   0.0531091700    0.0000000000    0.0261476300
   0.0537932500    0.0000000000    0.0263177600
   0.0532896600    0.0000000000    0.0259834900
   0.0180821800    0.0096972000    0.0003287600
   0.0169124100    0.0103184200   -0.0002022900
   0.0177624900    0.0098065000    0.0000350800
   0.0171150600    0.0102157700   -0.0001176300
  -0.0166776800    0.0103568900    0.0003598500
  -0.0178496300    0.0097334800   -0.0001703500
  -0.0169998400    0.0102448900    0.0000654700
  -0.0176453100    0.0098368900   -0.0000877400
  -0.0166776800   -0.0103568900    0.0003598500
  -0.0178496300   -0.0097334800   -0.0001703500
  -0.0169998400   -0.0102448900    0.0000654700
  -0.0176453100   -0.0098368900   -0.0000877400
   0.0180821800   -0.0096972000    0.0003287600
   0.0169124100   -0.0103184200   -0.0002022900
   0.0177624900   -0.0098065000    0.0000350800
   0.0171150600   -0.0102157700   -0.0001176300
   0.0384728500    0.0000000000   -0.0113125500
   0.0397821500    0.0000000000   -0.0111061700
   0.0392761500    0.0000000000   -0.0115652100
   0.0399181400    0.0000000000   -0.0111276400
  -0.0406685600    0.0000000000    0.0111636900
  -0.0393544700    0.0000000000    0.0113716400
  -0.0398580200    0.0000000000    0.0109140400
  -0.0392187800    0.0000000000    0.0113506900

1    
  0.0000000000000000   0.0100000000000000   0.0000000000000000
   0.0000000000   -0.0617169500    0.0000000000
   0.0000000000    0.0003245600    0.0000000000
   0.0000000000   -0.0000655500    0.0000000000
   0.0000000000    0.0004240000    0.0000000000
   0.0000000000   -0.0007645000    0.0000000000
   0.0000000000   -0.0081118600    0.0000000000
   0.0000000000   -0.0079951600    0.0000000000
   0.0000000000   -0.0081366200    0.0000000000
   0.0000000000    0.0153452900    0.0000000000
   0.0000000000    0.0078681300    0.0000000000
   0.0000000000    0.0079859100    0.0000000000
   0.0000000000    0.0078463100    0.0000000000
   0.0009349500    0.0002489200   -0.0015757200
  -0.0000802000   -0.0002117000    0.0000305300
  -0.0009349500    0.0002489200    0.0015757200
   0.0000802000   -0.0002117000   -0.0000305300
  -0.0009344800    0.0007012300    0.0015680900
   0.0000803600    0.0002377300   -0.0000310700
   0.0009344800    0.0007012300   -0.0015680900
  -0.0000803600    0.0002377300    0.0000310700
  -0.0000019900    0.0003135400   -0.0000019900
   0.0000019900    0.0003135400    0.0000019900
  -0.0000005600    0.0000403300    0.0000000900
   0.0000005600    0.0000403300   -0.0000000900
  -0.0029213300   -0.0069355900    0.0004415700
   0.0029213300   -0.0069355900   -0.0004415700
  -0.0001342500   -0.0079762000    0.0000125800
   0.0001342500   -0.0079762000   -0.0000125800
   0.0029018500    0.0090467400   -0.0004462300
  -0.0029018500    0.0090467400    0.0004462300
   0.0001334000    0.0080066900   -0.0000140300
  -0.0001334000    0.0080066900    0.0000140300
   0.0002205500    0.0004217900    0.0004985200
  -0.0001213900   -0.0002800100    0.0000368300
   0.0001213900   -0.0002800100   -0.0000368300
  -0.0002205500    0.0004217900   -0.0004985200
  -0.0002225100    0.0008683000   -0.0005007300
   0.0001237900    0.0001686200   -0.0000383300
  -0.0001237900    0.0001686200    0.0000383300
   0.0002225100    0.0008683000    0.0005007300
  -0.0535354700   -0.0010236000   -0.0262158300
  -0.0535543500    0.0015353300   -0.0262009500
  -0.0535490200    0.0002764000   -0.0261989700
  -0.0535467900   -0.0000895500   -0.0262033300
   0.0535354700   -0.0010236000    0.0262158300
   0.0535543500    0.0015353300    0.0262009500
   0.0535490200    0.0002764000    0.0261989700
   0.0535467900   -0.0000895500    0.0262033300
   0.0225198600    0.0231369700    0.0086303000
   0.0172477000    0.0101389600   -0.0001096500
   0.0172662200    0.0100393600    0.0001061100
   0.0171638800    0.0104238700   -0.0004718200
  -0.0225198600    0.0231369700   -0.0086303000
  -0.0172477000    0.0101389600    0.0001096500
  -0.0172662200    0.0100393600   -0.0001061100
  -0.0171638800    0.0104238700    0.0004718200
  -0.0124252600    0.0028488600    0.0083793700
  -0.0175051400   -0.0099241600   -0.0000734700
  -0.0174876900   -0.0100231300    0.0001440400
  -0.0175926000   -0.0096349700   -0.0004355300
   0.0124252600    0.0028488600   -0.0083793700
   0.0175051400   -0.0099241600    0.0000734700
   0.0174876900   -0.0100231300   -0.0001440400
   0.0175926000   -0.0096349700    0.0004355300
   0.0395515100   -0.0095603400   -0.0112685600
   0.0395725200    0.0020151000   -0.0112345100
   0.0395697400   -0.0000581700   -0.0112361800
   0.0395659200    0.0012151900   -0.0112436400
  -0.0395515100   -0.0095603400    0.0112685600
  -0.0395725200    0.0020151000    0.0112345100
  -0.0395697400   -0.0000581700    0.0112361800
  -0.0395659200    0.0012151900    0.0112436400
  -0.0535508400   -0.0006418300   -0.0262035000
  -0.0535467600   -0.0000690400   -0.0262014800
  -0.0535485100   -0.0000768800   -0.0262001800
  -0.0535492600    0.0000161600   -0.0262018200
   0.0535508400   -0.0006418300    0.0262035000
   0.0535467600   -0.0000690400    0.0262014800
   0.0535485100   -0.0000768800    0.0262001800
   0.0535492600    0.0000161600    0.0262018200
   0.0171033000    0.0091235200    0.0002860400
   0.0174182800    0.0097317700    0.0000970800
   0.0174616800    0.0097518100   -0.0001524500
   0.0174111200    0.0100789800   -0.0000372200
  -0.0171033000    0.0091235200   -0.0002860400
  -0.0174182800    0.0097317700   -0.0000970800
  -0.0174616800    0.0097518100    0.0001524500
  -0.0174111200    0.0100789800    0.0000372200
  -0.0176530200   -0.0109451000    0.0003279400
  -0.0173350600   -0.0103287500    0.0001345800
  -0.0172947700   -0.0103071600   -0.0001179200
  -0.0173433900   -0.0099830300   -0.0000005800
   0.0176530200   -0.0109451000   -0.0003279400
   0.0173350600   -0.0103287500   -0.0001345800
   0.0172947700   -0.0103071600    0.0001179200
   0.0173433900   -0.0099830300    0.0000005800
   0.0395742400    0.0008080900   -0.0112383300
   0.0395672300    0.0003438300   -0.0112383400
   0.0395664100    0.0001385200   -0.0112409500
   0.0395683300   -0.0001091800   -0.0112388200
  -0.0395742400    0.0008080900    0.0112383300
  -0.0395672300    0.0003438300    0.0112383400
  -0.0395664100    0.0001385200    0.0112409500
  -0.0395683300   -0.0001091800    0.0112388200

1    
 -0.0031196594084859   0.0000000000000000   0.0095009328581485
  -0.0108318500    0.0000000000   -0.0395806700
  -0.0000369600    0.0000000000   -0.0016536800
  -0.0000029300    0.0000000000    0.0009727400
  -0.0000960400    0.0000000000    0.0008815600
  -0.0004842400   -0.0079822500   -0.0026389400
  -0.0002603500   -0.0079967100   -0.0012581800
   0.0000637300   -0.0079947700    0.0007083100
   0.0001455200   -0.0079923500    0.0005709100
  -0.0004842400    0.0079822500   -0.0026389400
  -0.0002603500    0.0079967100   -0.0012581800
   0.0000637300    0.0079947700    0.0007083100
   0.0001455200    0.0079923500    0.0005709100
  -0.0003045300   -0.0021242000    0.0029404500
  -0.0000891600   -0.0003212000    0.0003848600
  -0.0003045500    0.0017075900    0.0029821900
  -0.0000934500   -0.0001294400    0.0003871300
  -0.0003045300    0.0021242000    0.0029404500
  -0.0000891600    0.0003212000    0.0003848600
  -0.0003045500   -0.0017075900    0.0029821900
  -0.0000934500    0.0001294400    0.0003871300
  -0.0000534900    0.0000000000   -0.0010105000
  -0.0000526300    0.0000000000   -0.0010091400
   0.0000342300    0.0000000000    0.0005371200
   0.0000349400    0.0000000000    0.0005369100
  -0.0004560100   -0.0067015900   -0.0027355200
  -0.0004706200   -0.0092885800   -0.0027203600
  -0.0000609100   -0.0079657800    0.0007652900
  -0.0000579200   -0.0080236500    0.0007651200
  -0.0004560100    0.0067015900   -0.0027355200
  -0.0004706200    0.0092885800   -0.0027203600
  -0.0000609100    0.0079657800    0.0007652900
  -0.0000579200    0.0080236500    0.0007651200
   0.0002407100    0.0002834900    0.0007420700
  -0.0000633800    0.0000618900    0.0003071700
  -0.0000636500   -0.0005144700    0.0003090300
   0.0002428300   -0.0007292900    0.0007417500
   0.0002407100   -0.0002834900    0.0007420700
  -0.0000633800   -0.0000618900    0.0003071700
  -0.0000636500    0.0005144700    0.0003090300
   0.0002428300    0.0007292900    0.0007417500
  -0.0554311100    0.0000000000   -0.0232622500
  -0.0543092500    0.0000000000   -0.0257622000
  -0.0535482200    0.0000000000   -0.0271591700
  -0.0529710700    0.0000000000   -0.0271907000
   0.0519023700    0.0000000000    0.0290454600
   0.0527985300    0.0000000000    0.0266411200
   0.0535602200    0.0000000000    0.0252330600
   0.0541412000    0.0000000000    0.0252069200
   0.0205251700    0.0160147300    0.0073202900
   0.0188122500    0.0092066900    0.0002845500
   0.0174596800    0.0102921900   -0.0009191400
   0.0172692000    0.0103773000   -0.0007010400
  -0.0143347500    0.0041368400    0.0072857600
  -0.0159608100    0.0108387000    0.0003159200
  -0.0173002800    0.0097569100   -0.0008927400
  -0.0174912100    0.0096758900   -0.0006655200
  -0.0143347500   -0.0041368400    0.0072857600
  -0.0159608100   -0.0108387000    0.0003159200
  -0.0173002800   -0.0097569100   -0.0008927400
  -0.0174912100   -0.0096758900   -0.0006655200
   0.0205251700   -0.0160147300    0.0073202900
   0.0188122500   -0.0092066900    0.0002845500
   0.0174596800   -0.0102921900   -0.0009191400
   0.0172692000   -0.0103773000   -0.0007010400
   0.0436125900    0.0000000000   -0.0090787800
   0.0352770500    0.0000000000   -0.0099598200
   0.0400059200    0.0000000000   -0.0104989500
   0.0391964300    0.0000000000   -0.0105484700
  -0.0355217100    0.0000000000    0.0133855500
  -0.0438402800    0.0000000000    0.0124612900
  -0.0391413500    0.0000000000    0.0119768800
  -0.0399307800    0.0000000000    0.0119141700
  -0.0535028200    0.0000000000   -0.0259813200
  -0.0537397900    0.0000000000   -0.0260439800
  -0.0534033100    0.0000000000   -0.0264768700
  -0.0536487400    0.0000000000   -0.0264865300
   0.0536142000    0.0000000000    0.0264131800
   0.0533734000    0.0000000000    0.0263523600
   0.0537114800    0.0000000000    0.0259176300
   0.0534678300    0.0000000000    0.0259086200
   0.0174906400    0.0102149100    0.0001611400
   0.0175617700    0.0103584100    0.0000761800
   0.0173981100    0.0098333600   -0.0004667300
   0.0173390900    0.0099993600   -0.0002817600
  -0.0172689800    0.0098378100    0.0001908100
  -0.0172017800    0.0096921400    0.0001061000
  -0.0173660000    0.0102174100   -0.0004379700
  -0.0174223000    0.0100514100   -0.0002533600
  -0.0172689800   -0.0098378100    0.0001908100
  -0.0172017800   -0.0096921400    0.0001061000
  -0.0173660000   -0.0102174100   -0.0004379700
  -0.0174223000   -0.0100514100   -0.0002533600
   0.0174906400   -0.0102149100    0.0001611400
   0.0175617700   -0.0103584100    0.0000761800
   0.0173981100   -0.0098333600   -0.0004667300
   0.0173390900   -0.0099993600   -0.0002817600
   0.0398516500    0.0000000000   -0.0106534300
   0.0395443500    0.0000000000   -0.0107247400
   0.0393786600    0.0000000000   -0.0114313500
   0.0396726700    0.0000000000   -0.0113604800
  -0.0392898500    0.0000000000    0.0118223300
  -0.0395919800    0.0000000000    0.0117538600
  -0.0397566300    0.0000000000    0.0110468600
  -0.0394645300    0.0000000000    0.0111178300

5    
  0.0099999965536197   0.0000000000000000   0.0000083022643510
  -0.0019055700   -0.0000115400   -0.0011379200
   0.0005804200    0.0000003600   -0.0000850300
  -0.0003420700   -0.0000001600   -0.0000444200
   0.0003779000    0.0000014300    0.0002773800
  -0.0550887000   -0.0079501800    0.0108463200
   0.0005198300   -0.0079917800   -0.0000852000
   0.0000803300   -0.0079928300   -0.0002754600
   0.0001659500   -0.0079919500    0.0002462500
  -0.0007774500    0.0080002900   -0.0009021500
   0.0001689000    0.0079922300    0.0000358900
   0.0002900800    0.0079933700   -0.0002719800
   0.0001163300    0.0079909800    0.0002630200
  -0.0004216000   -0.0003684400   -0.0000601600
   0.0002376100   -0.0002994900    0.0001015400
  -0.0004193500   -0.0000808700   -0.0000592900
   0.0002370000   -0.0001495800    0.0001023600
  -0.0011483500    0.0017551100   -0.0010718500
   0.0003635800    0.0001872500    0.0001239900
  -0.0011461500   -0.0013113200   -0.0010784300
   0.0003625700    0.0002636600    0.0001249700
   0.0033996100    0.0028880700    0.0006349900
   0.0034487300   -0.0029342500    0.0006342700
  -0.0000874300    0.0001341200   -0.0000910100
  -0.0000868800   -0.0001340800   -0.0000904000
   0.0002511500   -0.0080874800   -0.0000209900
   0.0002507700   -0.0078988500   -0.0000184900
  -0.0001597700   -0.0082556300    0.0000143000
  -0.0001580200   -0.0077324600    0.0000137600
   0.0057921100    0.0048480400   -0.0002129800
   0.0058702900    0.0111907900   -0.0002170200
  -0.0000708500    0.0082138100    0.0000016000
  -0.0000698400    0.0077737700    0.0000014700
   0.0007108300    0.0004922100    0.0017988900
   0.0009965400   -0.0002028800   -0.0006786300
   0.0009971500   -0.0002479100   -0.0006736000
   0.0007138500   -0.0009455200    0.0018126900
   0.0001492700    0.0001334900    0.0003052900
   0.0002044700    0.0001420100   -0.0000488100
   0.0002046000    0.0003081500   -0.0000470400
   0.0001455100    0.0003160100    0.0003024800
  -0.0538414700    0.0005486600   -0.0259697900
  -0.0541044300   -0.0003882000   -0.0263857100
  -0.0532855800    0.0000327500   -0.0263674600
  -0.0537573200   -0.0000445400   -0.0261855700
   0.0532804800   -0.0005502400    0.0264212700
   0.0530180900    0.0003891500    0.0260060000
   0.0538359900   -0.0000339200    0.0260237500
   0.0533686800    0.0000442900    0.0262041400
   0.0172665300    0.0089583500    0.0000134300
   0.0171079800    0.0101189400   -0.0000192600
   0.0174147500    0.0099200800    0.0000885700
   0.0171474800    0.0104189400   -0.0006171400
  -0.0175036600    0.0110806600    0.0000388300
  -0.0176615000    0.0099199500    0.0000071900
  -0.0173523600    0.0101205800    0.0001129900
  -0.0176184400    0.0096237900   -0.0005860600
  -0.0165776300   -0.0117618200    0.0015067500
  -0.0179223100   -0.0102074300    0.0001464400
  -0.0174580400   -0.0098111300    0.0002779000
  -0.0175606900   -0.0099429100   -0.0004746800
   0.0182154500   -0.0082196600    0.0015099100
   0.0168446300   -0.0098306300    0.0001188100
   0.0173093300   -0.0102277800    0.0002526100
   0.0172064900   -0.0100978200   -0.0005019500
   0.0423289300    0.0018476200   -0.0110699500
   0.0400350500   -0.0001275900   -0.0111905300
   0.0396404300    0.0001586000   -0.0112441700
   0.0392968800    0.0003074300   -0.0107018000
  -0.0368017400   -0.0018558300    0.0113865400
  -0.0390966600    0.0001258200    0.0112803000
  -0.0394951100   -0.0001594200    0.0112288900
  -0.0398335800   -0.0003016900    0.0117645600
  -0.0475276600   -0.0049003200   -0.0224780400
  -0.0542768400    0.0002086500   -0.0260856700
  -0.0534731000    0.0000567100   -0.0262024600
  -0.0536623000   -0.0000675500   -0.0263750500
   0.0595940700    0.0048414200    0.0298677400
   0.0528481900   -0.0002050100    0.0263056500
   0.0536527000   -0.0000594100    0.0261898000
   0.0534647900    0.0000665000    0.0260137400
   0.0318457900    0.0096814600   -0.0087401200
   0.0166119000    0.0104273100   -0.0004275100
   0.0177454800    0.0098145300    0.0002565800
   0.0172332800    0.0100851900   -0.0000193800
  -0.0025109500    0.0103118900   -0.0091051300
  -0.0181465200    0.0096185100   -0.0003947500
  -0.0170221700    0.0102256600    0.0002793000
  -0.0175340300    0.0099536000    0.0000052300
  -0.0162775700   -0.0091904700    0.0001913500
  -0.0177379300   -0.0100800000   -0.0001368900
  -0.0169649900   -0.0106368700    0.0006936100
  -0.0174598400   -0.0099795400   -0.0000729800
   0.0184873000   -0.0108400700    0.0001661500
   0.0170288000   -0.0099564900   -0.0001630900
   0.0178043900   -0.0093992100    0.0006707100
   0.0173076600   -0.0100592200   -0.0000979800
   0.0336291900    0.0057660500   -0.0123722700
   0.0401770100   -0.0006999300   -0.0112628800
   0.0403094700    0.0006258500   -0.0121354900
   0.0395608600   -0.0001176100   -0.0111381400
  -0.0455407200   -0.0057701300    0.0101312300
  -0.0389580500    0.0006898900    0.0112097300
  -0.0388321900   -0.0006233200    0.0103448500
  -0.0395759800    0.0001189800    0.0113367400

5    
  0.0000000000000000   0.0100000000000000   0.0000000000000000
   0.0000000000    0.0073504300    0.0000000000
   0.0000000000   -0.0001217100    0.0000000000
   0.0000000000   -0.0000051400    0.0000000000
   0.0000000000   -0.0001434400    0.0000000000
   0.0000000000   -0.0521796700    0.0000000000
   0.0000000000   -0.0082037800    0.0000000000
   0.0000000000   -0.0084864200    0.0000000000
   0.0000000000   -0.0084614200    0.0000000000
   0.0000000000    0.0124355400    0.0000000000
   0.0000000000    0.0083116900    0.0000000000
   0.0000000000    0.0085251700    0.0000000000
   0.0000000000    0.0085253200    0.0000000000
   0.0001673100    0.0004447800   -0.0001144400
  -0.0001501100    0.0001482700   -0.0001383200
  -0.0001673100    0.0004447800    0.0001144400
   0.0001501100    0.0001482700    0.0001383200
   0.0016261100   -0.0004302500   -0.0015819600
  -0.0002801900   -0.0001208900   -0.0001031300
  -0.0016261100   -0.0004302500    0.0015819600
   0.0002801900   -0.0001208900    0.0001031300
   0.0029418000    0.0010565400   -0.0003915300
  -0.0029418000    0.0010565400    0.0003915300
   0.0003884200    0.0000147800    0.0000972600
  -0.0003884200    0.0000147800   -0.0000972600
   0.0000936400   -0.0073245200    0.0002664300
  -0.0000936400   -0.0073245200   -0.0002664300
   0.0002612100   -0.0075600400   -0.0000271000
  -0.0002612100   -0.0075600400    0.0000271000
  -0.0031782700    0.0074373500    0.0012599500
   0.0031782700    0.0074373500   -0.0012599500
   0.0002201500    0.0075258300   -0.0000425000
  -0.0002201500    0.0075258300    0.0000425000
   0.0006189300   -0.0024850300    0.0002224900
  -0.0004939600   -0.0003595400    0.0001857300
   0.0004939600   -0.0003595400   -0.0001857300
  -0.0006189300   -0.0024850300   -0.0002224900
   0.0005554700    0.0013956800    0.0004929900
  -0.0002952500    0.0005117200    0.0000013500
   0.0002952500    0.0005117200   -0.0000013500
  -0.0005554700    0.0013956800   -0.0004929900
  -0.0527539400   -0.0000694900   -0.0266615000
  -0.0546210100   -0.0008754800   -0.0261940900
  -0.0538239500   -0.0001254800   -0.0256721700
  -0.0534162100    0.0000204300   -0.0261038800
   0.0527539400   -0.0000694900    0.0266615000
   0.0546210100   -0.0008754800    0.0261940900
   0.0538239500   -0.0001254800    0.0256721700
   0.0534162100    0.0000204300    0.0261038800
   0.0174980100    0.0083636200   -0.0000473500
   0.0173472300    0.0097140400   -0.0001336900
   0.0175007600    0.0097693600    0.0000238200
   0.0175371100    0.0093262200    0.0006317600
  -0.0174980100    0.0083636200    0.0000473500
  -0.0173472300    0.0097140400    0.0001336900
  -0.0175007600    0.0097693600   -0.0000238200
  -0.0175371100    0.0093262200   -0.0006317600
  -0.0192420600   -0.0074731400   -0.0026225500
  -0.0173793800   -0.0096625000    0.0001819700
  -0.0174383900   -0.0096720600   -0.0000160700
  -0.0174250900   -0.0097370400   -0.0003115200
   0.0192420600   -0.0074731400    0.0026225500
   0.0173793800   -0.0096625000   -0.0001819700
   0.0174383900   -0.0096720600    0.0000160700
   0.0174250900   -0.0097370400    0.0003115200
   0.0408118000    0.0045125000   -0.0111493400
   0.0387825300   -0.0003084400   -0.0111945800
   0.0391378200   -0.0000473100   -0.0114435700
   0.0398264800   -0.0005194500   -0.0120069300
  -0.0408118000    0.0045125000    0.0111493400
  -0.0387825300   -0.0003084400    0.0111945800
  -0.0391378200   -0.0000473100    0.0114435700
  -0.0398264800   -0.0005194500    0.0120069300
  -0.0582228800    0.0092541800   -0.0321670700
  -0.0538908500    0.0000066700   -0.0262214300
  -0.0529338000   -0.0000004900   -0.0268583600
  -0.0539046700    0.0000060000   -0.0263871400
   0.0582228800    0.0092541800    0.0321670700
   0.0538908500    0.0000066700    0.0262214300
   0.0529338000   -0.0000004900    0.0268583600
   0.0539046700    0.0000060000    0.0263871400
   0.0172599100    0.0122768900   -0.0000323100
   0.0177170800    0.0105345700   -0.0000160800
   0.0170678200    0.0107010300   -0.0003066700
   0.0175036100    0.0102008600   -0.0000252900
  -0.0172599100    0.0122768900    0.0000323100
  -0.0177170800    0.0105345700    0.0000160800
  -0.0170678200    0.0107010300    0.0003066700
  -0.0175036100    0.0102008600    0.0000252900
  -0.0165763900   -0.0103440200   -0.0001815700
  -0.0177285900   -0.0103676000   -0.0000782400
  -0.0171630300   -0.0104332000    0.0003290500
  -0.0174896700   -0.0102685300    0.0000017000
   0.0165763900   -0.0103440200    0.0001815700
   0.0177285900   -0.0103676000    0.0000782400
   0.0171630300   -0.0104332000   -0.0003290500
   0.0174896700   -0.0102685300   -0.0000017000
   0.0449701000    0.0015439900   -0.0137068800
   0.0397160500   -0.0001539300   -0.0111685900
   0.0403666800   -0.0002705000   -0.0096988200
   0.0398793100    0.0000703500   -0.0113417100
  -0.0449701000    0.0015439900    0.0137068800
  -0.0397160500   -0.0001539300    0.0111685900
  -0.0403666800   -0.0002705000    0.0096988200
  -0.0398793100    0.0000703500    0.0113417100

5    
  0.0000000000000000  -0.0100000000000000   0.0000000000000000
   0.0000000000   -0.0072311100    0.0000000000
   0.0000000000    0.0001216500    0.0000000000
   0.0000000000    0.0000045700    0.0000000000
   0.0000000000    0.0001463400    0.0000000000
   0.0000000000    0.0364274400    0.0000000000
   0.0000000000   -0.0077839000    0.0000000000
   0.0000000000   -0.0075010300    0.0000000000
   0.0000000000   -0.0075257400    0.0000000000
   0.0000000000    0.0034836900    0.0000000000
   0.0000000000    0.0076769000    0.0000000000
   0.0000000000    0.0074612400    0.0000000000
   0.0000000000    0.0074579700    0.0000000000
  -0.0001692100   -0.0008937700    0.0001128700
   0.0001500900   -0.0005972200    0.0001362500
   0.0001692100   -0.0008937700   -0.0001128700
  -0.0001500900   -0.0005972200   -0.0001362500
  -0.0016166200    0.0008731900    0.0015740500
   0.0002795600    0.0005697800    0.0001033300
   0.0016166200    0.0008731900   -0.0015740500
  -0.0002795600    0.0005697800   -0.0001033300
  -0.0029565100   -0.0010548000    0.0003946100
   0.0029565100   -0.0010548000   -0.0003946100
  -0.0003890500   -0.0000165400   -0.0000970600
   0.0003890500   -0.0000165400    0.0000970600
  -0.0000937900   -0.0086623300   -0.0002672800
   0.0000937900   -0.0086623300    0.0002672800
  -0.0002620900   -0.0084271400    0.0000286200
   0.0002620900   -0.0084271400   -0.0000286200
   0.0031676300    0.0085325700   -0.0012572800
  -0.0031676300    0.0085325700    0.0012572800
  -0.0002202300    0.0084618100    0.0000418800
   0.0002202300    0.0084618100   -0.0000418800
  -0.0006134400    0.0020286800   -0.0002138500
   0.0004878400   -0.0000920800   -0.0001837100
  -0.0004878400   -0.0000920800    0.0001837100
   0.0006134400    0.0020286800    0.0002138500
  -0.0005535300   -0.0009483700   -0.0004977200
   0.0002959400   -0.0000612200   -0.0000019400
  -0.0002959400   -0.0000612200    0.0000019400
   0.0005535300   -0.0009483700    0.0004977200
  -0.0543469500    0.0000656500   -0.0257387100
  -0.0524940900    0.0008731000   -0.0262025600
  -0.0532861800    0.0001237100   -0.0267231800
  -0.0536959400   -0.0000204200   -0.0262909900
   0.0543469500    0.0000656500    0.0257387100
   0.0524940900    0.0008731000    0.0262025600
   0.0532861800    0.0001237100    0.0267231800
   0.0536959400   -0.0000204200    0.0262909900
   0.0172602900    0.0116879200    0.0000146000
   0.0174163500    0.0103373300    0.0001027200
   0.0172604900    0.0102818100   -0.0000526900
   0.0172221700    0.0107269900   -0.0006670600
  -0.0172602900    0.0116879200   -0.0000146000
  -0.0174163500    0.0103373300   -0.0001027200
  -0.0172604900    0.0102818100    0.0000526900
  -0.0172221700    0.0107269900    0.0006670600
  -0.0156290800   -0.0124111200    0.0025343400
  -0.0173819800   -0.0103872800   -0.0001515400
  -0.0173223300   -0.0103784300    0.0000458200
  -0.0173361000   -0.0103180500    0.0003411700
   0.0156290800   -0.0124111200   -0.0025343400
   0.0173819800   -0.0103872800    0.0001515400
   0.0173223300   -0.0103784300   -0.0000458200
   0.0173361000   -0.0103180500   -0.0003411700
   0.0383224400   -0.0045046600   -0.0112912600
   0.0403446700    0.0003034300   -0.0112797200
   0.0399958500    0.0000461900   -0.0110339900
   0.0393033300    0.0005288700   -0.0104612400
  -0.0383224400   -0.0045046600    0.0112912600
  -0.0403446700    0.0003034300    0.0112797200
  -0.0399958500    0.0000461900    0.0110339900
  -0.0393033300    0.0005288700    0.0104612400
  -0.0487428800   -0.0095285800   -0.0199587500
  -0.0532220600   -0.0000059400   -0.0261744500
  -0.0541794100   -0.0000001600   -0.0255371300
  -0.0532070500   -0.0000055000   -0.0260083800
   0.0487428800   -0.0095285800    0.0199587500
   0.0532220600   -0.0000059400    0.0261744500
   0.0541794100   -0.0000001600    0.0255371300
   0.0532070500   -0.0000055000    0.0260083800
   0.0175613400    0.0077802600   -0.0000431700
   0.0170447100    0.0095183600   -0.0000138900
   0.0176917200    0.0093517200    0.0002777300
   0.0172577000    0.0098509900   -0.0000049400
  -0.0175613400    0.0077802600    0.0000431700
  -0.0170447100    0.0095183600    0.0000138900
  -0.0176917200    0.0093517200   -0.0002777300
  -0.0172577000    0.0098509900    0.0000049400
  -0.0181877200   -0.0097108400    0.0002107900
  -0.0170314200   -0.0096848700    0.0001096500
  -0.0176002700   -0.0096202700   -0.0002935800
  -0.0172709500   -0.0097833200    0.0000278400
   0.0181877200   -0.0097108400   -0.0002107900
   0.0170314200   -0.0096848700   -0.0001096500
   0.0176002700   -0.0096202700    0.0002935800
   0.0172709500   -0.0097833200   -0.0000278400