 104  104
1 1
     3.610316518726051    -0.000000000000000     2.325615117395166
    -0.000000000000000     6.171695000000000    -0.000000000000000
     2.325540894261358    -0.000000000000000     4.929599838328510
1 2
    -0.148322846926650    -0.000000000000000    -0.044773314534661
    -0.000000000000000    -0.032456000000000    -0.000000000000000
    -0.044812101218354    -0.000000000000000     0.159353037293002
1 3
     0.095100851554275    -0.000000000000000     0.031537415135856
    -0.000000000000000     0.006555000000000    -0.000000000000000
     0.031535036693723    -0.000000000000000    -0.092028227039012
1 4
    -0.115938826513998    -0.000000000000000    -0.027942358385869
    -0.000000000000000    -0.042400000000000    -0.000000000000000
    -0.027960375566213    -0.000000000000000    -0.101961634262358
1 5
     0.190472826688971     0.000000000000000     0.112883665715042
    -0.000000000000000    -0.729039500000000    -0.000000000000000
     0.113509942859581     0.000000000000000     0.314821569046979
1 6
    -0.057929978169549     0.000000000000000    -0.052641612047276
    -0.000000000000000     0.012186500000000    -0.000000000000000
     0.008381092652569     0.000000000000000     0.115141967218579
1 7
     0.034215253425471     0.000000000000000     0.028136234285080
    -0.000000000000000     0.000462500000000    -0.000000000000000
     0.004526917293770     0.000000000000000    -0.065313010970389
1 8
    -0.037772999749839     0.000000000000000    -0.034735654563764
    -0.000000000000000     0.014515500000000    -0.000000000000000
    -0.027719266938135     0.000000000000000    -0.071495443838147
1 9
     0.190472826688971    -0.000000000000000     0.112883665715042
    -0.000000000000000    -0.729039500000000    -0.000000000000000
     0.113509942859581    -0.000000000000000     0.314821569046979
1 10
    -0.057929978169549    -0.000000000000000    -0.052641612047276
    -0.000000000000000     0.012186500000000    -0.000000000000000
     0.008381092652569    -0.000000000000000     0.115141967218579
1 11
     0.034215253425471    -0.000000000000000     0.028136234285080
    -0.000000000000000     0.000462500000000    -0.000000000000000
     0.004526917293770    -0.000000000000000    -0.065313010970389
1 12
    -0.037772999749839    -0.000000000000000    -0.034735654563764
    -0.000000000000000     0.014515500000000    -0.000000000000000
    -0.027719266938135    -0.000000000000000    -0.071495443838147
1 13
     0.192743911203954    -0.094082802712368     0.089417925863284
    -0.093471500000000    -0.047507500000000     0.157190500000000
     0.095341727969259     0.170760989848507    -0.282326647955708
1 14
    -0.084349513342973     0.009564517592104    -0.002488592787212
     0.008028000000000    -0.001301500000000    -0.003080000000000
    -0.018086303257499     0.013232178268265    -0.041444200036085
1 15
     0.192743911203954     0.094082802712368     0.089417925863284
     0.093471500000000    -0.047507500000000    -0.157190500000000
     0.095341727969259    -0.170760989848507    -0.282326647955708
1 16
    -0.084349513342973    -0.009564517592104    -0.002488592787212
    -0.008028000000000    -0.001301500000000     0.003080000000000
    -0.018086303257499    -0.013232178268265    -0.041444200036085
1 17
     0.192743911203954     0.094082802712368     0.089417925863284
     0.093471500000000    -0.047507500000000    -0.157190500000000
     0.095341727969259    -0.170760989848507    -0.282326647955708
1 18
    -0.084349513342973    -0.009564517592104    -0.002488592787212
    -0.008028000000000    -0.001301500000000     0.003080000000000
    -0.018086303257499    -0.013232178268265    -0.041444200036085
1 19
     0.192743911203954    -0.094082802712368     0.089417925863284
    -0.093471500000000    -0.047507500000000     0.157190500000000
     0.095341727969259     0.170760989848507    -0.282326647955708
1 20
    -0.084349513342973     0.009564517592104    -0.002488592787212
     0.008028000000000    -0.001301500000000    -0.003080000000000
    -0.018086303257499     0.013232178268265    -0.041444200036085
1 21
    -0.015503415576544    -0.000000000000000     0.000452634981063
     0.000000000000000    -0.031354000000000    -0.000000000000000
     0.000494122398617    -0.000000000000000     0.106435029283466
1 22
    -0.015503415576544    -0.000000000000000     0.000452634981063
    -0.000000000000000    -0.031354000000000    -0.000000000000000
     0.000494122398617    -0.000000000000000     0.106435029283466
1 23
    -0.000732278463490    -0.000000000000000    -0.003872019449084
     0.000000000000000    -0.004033000000000    -0.000000000000000
    -0.003880614666868    -0.000000000000000    -0.057793733531465
1 24
    -0.000732278463490    -0.000000000000000    -0.003872019449084
    -0.000000000000000    -0.004033000000000    -0.000000000000000
    -0.003880614666868    -0.000000000000000    -0.057793733531465
1 25
    -0.342360274246058     0.294963722737455    -0.067352039978023
     0.291159000000000    -0.105557500000000    -0.044390000000000
    -0.063649797306469    -0.039291788793129     0.265008143136431
1 26
    -0.342360274246058    -0.294963722737455    -0.067352039978023
    -0.291159000000000    -0.105557500000000     0.044390000000000
    -0.063649797306469     0.039291788793129     0.265008143136431
1 27
     0.008739428678745     0.038909434860117     0.001271520238022
     0.013382500000000    -0.001524500000000    -0.001330500000000
     0.009123213709283     0.009730537613572    -0.080122478633611
1 28
     0.008739428678745    -0.038909434860116     0.001271520238022
    -0.013382500000000    -0.001524500000000     0.001330500000000
     0.009123213709283    -0.009730537613572    -0.080122478633611
1 29
    -0.342360274246058    -0.294963722737455    -0.067352039978023
    -0.291159000000000    -0.105557500000000     0.044390000000000
    -0.063649797306469     0.039291788793129     0.265008143136431
1 30
    -0.342360274246058     0.294963722737455    -0.067352039978023
     0.291159000000000    -0.105557500000000    -0.044390000000000
    -0.063649797306469    -0.039291788793129     0.265008143136431
1 31
     0.008739428678745    -0.038909434860117     0.001271520238022
    -0.013382500000000    -0.001524500000000     0.001330500000000
     0.009123213709283    -0.009730537613572    -0.080122478633611
1 32
     0.008739428678745     0.038909434860116     0.001271520238022
     0.013382500000000    -0.001524500000000    -0.001330500000000
     0.009123213709283     0.009730537613572    -0.080122478633611
1 33
    -0.031704741231312    -0.067458383381070    -0.049229765749851
    -0.022153000000000    -0.064504500000000    -0.049962500000000
    -0.035857320471820    -0.075449136532020    -0.094252860773672
1 34
    -0.004756755087328     0.045025923349633     0.013388277782237
     0.012259000000000     0.005569500000000    -0.003758000000000
     0.005123238419289    -0.015547363274951    -0.028032314008493
1 35
    -0.004756755087328    -0.045025923349632     0.013388277782237
    -0.012259000000000     0.005569500000000     0.003758000000000
     0.005123238419289     0.015547363274951    -0.028032314008493
1 36
    -0.031704741231312     0.067458383381070    -0.049229765749851
     0.022153000000000    -0.064504500000000     0.049962500000000
    -0.035857320471820     0.075449136532020    -0.094252860773672
1 37
    -0.031704741231312     0.067458383381070    -0.049229765749851
     0.022153000000000    -0.064504500000000     0.049962500000000
    -0.035857320471820     0.075449136532020    -0.094252860773672
1 38
    -0.004756755087328    -0.045025923349633     0.013388277782237
    -0.012259000000000     0.005569500000000     0.003758000000000
     0.005123238419289     0.015547363274951    -0.028032314008493
1 39
    -0.004756755087328     0.045025923349632     0.013388277782237
     0.012259000000000     0.005569500000000    -0.003758000000000
     0.005123238419289    -0.015547363274951    -0.028032314008493
1 40
    -0.031704741231312    -0.067458383381070    -0.049229765749851
    -0.022153000000000    -0.064504500000000    -0.049962500000000
    -0.035857320471820    -0.075449136532020    -0.094252860773672
1 41
    -0.088822494086577    -0.000000000000000     0.228282526263768
    -0.000000000000000     0.102360000000000    -0.000000000000000
     0.156539793812148    -0.000000000000000    -0.229392345118943
1 42
     0.086545930640809    -0.000000000000000     0.048995561967682
     0.000000000000000    -0.153533000000000     0.000000000000000
     0.107921384362839    -0.000000000000000    -0.030166567684736
1 43
    -0.069600526073036    -0.000000000000000     0.033030851646473
    -0.000000000000000    -0.027640000000000     0.000000000000000
    -0.023485055555144    -0.000000000000000     0.112210034848828
1 44
     0.098542295741855    -0.000000000000000    -0.096943280957725
     0.000000000000000     0.008955000000000     0.000000000000000
    -0.029223088311480    -0.000000000000000     0.072567609072137
1 45
    -0.088822494086578    -0.000000000000000     0.228282526263767
     0.000000000000000     0.102360000000000     0.000000000000000
     0.156539793812147    -0.000000000000000    -0.229392345118943
1 46
     0.086545930640808    -0.000000000000000     0.048995561967682
    -0.000000000000000    -0.153533000000000    -0.000000000000000
     0.107921384362838    -0.000000000000000    -0.030166567684736
1 47
    -0.069600526073037    -0.000000000000000     0.033030851646472
     0.000000000000000    -0.027640000000000    -0.000000000000000
    -0.023485055555145    -0.000000000000000     0.112210034848828
1 48
     0.098542295741854    -0.000000000000000    -0.096943280957725
    -0.000000000000000     0.008955000000000    -0.000000000000000
    -0.029223088311481    -0.000000000000000     0.072567609072137
1 49
    -0.436175774793260    -0.506657589209605    -0.465130697107775
    -0.504730000000000    -1.299291500000000    -0.850483500000000
    -0.468999194722840    -0.791453242258140    -0.921391034555088
1 50
     0.176797949172720    -0.063489519690227    -0.001080970054355
     0.012872000000000    -0.010740000000000     0.009156000000000
    -0.092008924546033     0.065039857852290    -0.031955520887612
1 51
    -0.030432749819398     0.032717479618662    -0.055563036626521
     0.011073500000000    -0.000811500000000    -0.012507500000000
    -0.018381333381427    -0.017426984208576     0.077108454607772
1 52
     0.042953105448006    -0.054657972782550     0.058437382164545
     0.021436000000000    -0.039445000000000     0.045367500000000
     0.025787368797626    -0.054859798171589     0.091105235875290
1 53
    -0.436175774793260     0.506657589209605    -0.465130697107775
     0.504730000000000    -1.299291500000000     0.850483500000000
    -0.468999194722840     0.791453242258140    -0.921391034555088
1 54
     0.176797949172720     0.063489519690227    -0.001080970054355
    -0.012872000000000    -0.010740000000000    -0.009156000000000
    -0.092008924546033    -0.065039857852290    -0.031955520887612
1 55
    -0.030432749819397    -0.032717479618662    -0.055563036626521
    -0.011073500000000    -0.000811500000000     0.012507500000000
    -0.018381333381427     0.017426984208576     0.077108454607772
1 56
     0.042953105448006     0.054657972782550     0.058437382164545
    -0.021436000000000    -0.039445000000000    -0.045367500000000
     0.025787368797626     0.054859798171589     0.091105235875290
1 57
    -0.436175774793260    -0.506657589209605    -0.465130697107775
    -0.504730000000000    -1.299291500000000    -0.850483500000000
    -0.468999194722840    -0.791453242258140    -0.921391034555088
1 58
     0.176797949172720    -0.063489519690227    -0.001080970054355
     0.012872000000000    -0.010740000000000     0.009156000000000
    -0.092008924546033     0.065039857852290    -0.031955520887612
1 59
    -0.030432749819397     0.032717479618662    -0.055563036626521
     0.011073500000000    -0.000811500000000    -0.012507500000000
    -0.018381333381427    -0.017426984208576     0.077108454607772
1 60
     0.042953105448006    -0.054657972782550     0.058437382164545
     0.021436000000000    -0.039445000000000     0.045367500000000
     0.025787368797626    -0.054859798171589     0.091105235875290
1 61
    -0.436175774793260     0.506657589209605    -0.465130697107775
     0.504730000000000    -1.299291500000000     0.850483500000000
    -0.468999194722840     0.791453242258140    -0.921391034555088
1 62
     0.176797949172720     0.063489519690227    -0.001080970054355
    -0.012872000000000    -0.010740000000000    -0.009156000000000
    -0.092008924546033    -0.065039857852290    -0.031955520887612
1 63
    -0.030432749819398    -0.032717479618662    -0.055563036626521
    -0.011073500000000    -0.000811500000000     0.012507500000000
    -0.018381333381427     0.017426984208576     0.077108454607772
1 64
     0.042953105448006     0.054657972782550     0.058437382164545
    -0.021436000000000    -0.039445000000000    -0.045367500000000
     0.025787368797626     0.054859798171589     0.091105235875290
1 65
    -0.480546659667673    -0.000000000000000    -0.327816077223908
     0.000000000000000     0.956034000000000     0.000000000000000
    -0.583582895577818    -0.000000000000000    -0.334289227908873
1 66
    -0.532861564945106    -0.000000000000000    -0.058522772612256
    -0.000000000000000    -0.201510000000000     0.000000000000000
     0.275685392645635    -0.000000000000000    -0.150859514490856
1 67
     0.094927929320934    -0.000000000000000     0.111525209326846
     0.000000000000000     0.005817000000000    -0.000000000000000
    -0.014329349991049    -0.000000000000000    -0.041158519618920
1 68
     0.069631956716598    -0.000000000000000    -0.168163545401593
    -0.000000000000000    -0.121519000000000     0.000000000000000
     0.061510064077656    -0.000000000000000    -0.127088887439178
1 69
    -0.480546659667673    -0.000000000000000    -0.327816077223908
    -0.000000000000000     0.956034000000000    -0.000000000000000
    -0.583582895577817    -0.000000000000000    -0.334289227908873
1 70
    -0.532861564945105    -0.000000000000000    -0.058522772612256
    -0.000000000000000    -0.201510000000000    -0.000000000000000
     0.275685392645635    -0.000000000000000    -0.150859514490856
1 71
     0.094927929320935    -0.000000000000000     0.111525209326846
    -0.000000000000000     0.005817000000000     0.000000000000000
    -0.014329349991048    -0.000000000000000    -0.041158519618920
1 72
     0.069631956716599    -0.000000000000000    -0.168163545401594
     0.000000000000000    -0.121519000000000    -0.000000000000000
     0.061510064077656    -0.000000000000000    -0.127088887439178
1 73
    -0.054365831816695    -0.000000000000000    -0.015209490266524
     0.000000000000000     0.064183000000000     0.000000000000000
    -0.023712711382219    -0.000000000000000    -0.027721323089064
1 74
     0.044686825193300    -0.000000000000000     0.005153070700170
    -0.000000000000000     0.006904000000000     0.000000000000000
     0.033954842063005    -0.000000000000000    -0.014536906698500
1 75
    -0.023709080388862    -0.000000000000000    -0.012011663895724
     0.000000000000000     0.007688000000000    -0.000000000000000
    -0.024002827838750    -0.000000000000000     0.025486728864572
1 76
     0.026717821444276    -0.000000000000000     0.021447910584653
    -0.000000000000000    -0.001616000000000    -0.000000000000000
     0.018293519766727    -0.000000000000000     0.037455814219608
1 77
    -0.054365831816697    -0.000000000000000    -0.015209490266525
    -0.000000000000000     0.064183000000000    -0.000000000000000
    -0.023712711382219    -0.000000000000000    -0.027721323089064
1 78
     0.044686825193299    -0.000000000000000     0.005153070700170
     0.000000000000000     0.006904000000000    -0.000000000000000
     0.033954842063004    -0.000000000000000    -0.014536906698500
1 79
    -0.023709080388862    -0.000000000000000    -0.012011663895724
    -0.000000000000000     0.007688000000000     0.000000000000000
    -0.024002827838750    -0.000000000000000     0.025486728864572
1 80
     0.026717821444275    -0.000000000000000     0.021447910584652
     0.000000000000000    -0.001616000000000     0.000000000000000
     0.018293519766726    -0.000000000000000     0.037455814219608
1 81
    -0.070196203461605     0.032991993703819    -0.034405755254966
     0.027486000000000     0.091079000000000    -0.030699000000000
    -0.034714301373693    -0.009012400962684    -0.029819096957857
1 82
     0.046863969315386    -0.029209936663935     0.018634890563178
    -0.004161000000000     0.029849000000000    -0.011583000000000
    -0.003557058839468    -0.044654568142859    -0.003473920805594
1 83
    -0.038120718206650     0.021896758479806    -0.005065648818612
    -0.008345500000000     0.027767500000000     0.013518500000000
    -0.014206884653000     0.027401038665755     0.045947793497828
1 84
     0.026501648992519    -0.018941117201058     0.010242331019379
    -0.003386500000000    -0.004797500000000     0.001890000000000
     0.013080938522085    -0.003480167155918     0.031524544884301
1 85
    -0.070196203461605    -0.032991993703819    -0.034405755254966
    -0.027486000000000     0.091079000000000     0.030699000000000
    -0.034714301373692     0.009012400962684    -0.029819096957857
1 86
     0.046863969315386     0.029209936663935     0.018634890563178
     0.004161000000000     0.029849000000000     0.011583000000000
    -0.003557058839467     0.044654568142859    -0.003473920805594
1 87
    -0.038120718206650    -0.021896758479806    -0.005065648818612
     0.008345500000000     0.027767500000000    -0.013518500000000
    -0.014206884653000    -0.027401038665755     0.045947793497828
1 88
     0.026501648992519     0.018941117201058     0.010242331019379
     0.003386500000000    -0.004797500000000    -0.001890000000000
     0.013080938522086     0.003480167155918     0.031524544884301
1 89
    -0.070196203461605     0.032991993703819    -0.034405755254966
     0.027486000000000     0.091079000000000    -0.030699000000000
    -0.034714301373692    -0.009012400962684    -0.029819096957857
1 90
     0.046863969315386    -0.029209936663935     0.018634890563178
    -0.004161000000000     0.029849000000000    -0.011583000000000
    -0.003557058839467    -0.044654568142859    -0.003473920805594
1 91
    -0.038120718206650     0.021896758479806    -0.005065648818612
    -0.008345500000000     0.027767500000000     0.013518500000000
    -0.014206884653000     0.027401038665755     0.045947793497828
1 92
     0.026501648992519    -0.018941117201058     0.010242331019379
    -0.003386500000000    -0.004797500000000     0.001890000000000
     0.013080938522086    -0.003480167155918     0.031524544884301
1 93
    -0.070196203461605    -0.032991993703819    -0.034405755254966
    -0.027486000000000     0.091079000000000     0.030699000000000
    -0.034714301373693     0.009012400962684    -0.029819096957857
1 94
     0.046863969315386     0.029209936663935     0.018634890563178
     0.004161000000000     0.029849000000000     0.011583000000000
    -0.003557058839468     0.044654568142859    -0.003473920805594
1 95
    -0.038120718206650    -0.021896758479806    -0.005065648818612
     0.008345500000000     0.027767500000000    -0.013518500000000
    -0.014206884653000    -0.027401038665755     0.045947793497828
1 96
     0.026501648992519     0.018941117201058     0.010242331019379
     0.003386500000000    -0.004797500000000    -0.001890000000000
     0.013080938522085     0.003480167155918     0.031524544884301
1 97
     0.109780157036058    -0.000000000000000     0.007492031588717
    -0.000000000000000    -0.080809000000000     0.000000000000000
     0.006481121452172    -0.000000000000000    -0.059054981394209
1 98
    -0.021380259995611    -0.000000000000000    -0.013224935199726
     0.000000000000000    -0.034383000000000    -0.000000000000000
    -0.004513675645482    -0.000000000000000    -0.058501338954916
1 99
     0.029069071373137    -0.000000000000000     0.032532843446530
    -0.000000000000000    -0.013852000000000     0.000000000000000
     0.029436120240055    -0.000000000000000     0.030916584247918
1 100
    -0.034949390566563    -0.000000000000000    -0.011160063355824
    -0.000000000000000     0.010918000000000     0.000000000000000
    -0.022429397016427    -0.000000000000000     0.009105358878366
1 101
     0.109780157036059    -0.000000000000000     0.007492031588717
     0.000000000000000    -0.080809000000000    -0.000000000000000
     0.006481121452173    -0.000000000000000    -0.059054981394209
1 102
    -0.021380259995610    -0.000000000000000    -0.013224935199727
    -0.000000000000000    -0.034383000000000     0.000000000000000
    -0.004513675645482    -0.000000000000000    -0.058501338954916
1 103
     0.029069071373138    -0.000000000000000     0.032532843446529
     0.000000000000000    -0.013852000000000    -0.000000000000000
     0.029436120240056    -0.000000000000000     0.030916584247918
1 104
    -0.034949390566562    -0.000000000000000    -0.011160063355824
     0.000000000000000     0.010918000000000    -0.000000000000000
    -0.022429397016427    -0.000000000000000     0.009105358878366
2 1
    -0.148322846926650     0.000000000000000    -0.044773314534661
     0.000000000000000    -0.032456000000000     0.000000000000000
    -0.044812101218354     0.000000000000000     0.159353037293002
2 2
     3.610316518726051     0.000000000000000     2.325615117395166
     0.000000000000000     6.171695000000000     0.000000000000000
     2.325540894261358     0.000000000000000     4.929599838328509
2 3
    -0.115938826513998     0.000000000000000    -0.027942358385869
     0.000000000000000    -0.042400000000000     0.000000000000000
    -0.027960375566213     0.000000000000000    -0.101961634262358
2 4
     0.095100851554275     0.000000000000000     0.031537415135856
     0.000000000000000     0.006555000000000     0.000000000000000
     0.031535036693723     0.000000000000000    -0.092028227039012
2 5
    -0.057929978169549     0.000000000000000    -0.052641612047276
     0.000000000000000     0.012186500000000     0.000000000000000
     0.008381092652569     0.000000000000000     0.115141967218579
2 6
     0.190472826688971     0.000000000000000     0.112883665715042
     0.000000000000000    -0.729039500000000     0.000000000000000
     0.113509942859581     0.000000000000000     0.314821569046979
2 7
    -0.037772999749839     0.000000000000000    -0.034735654563764
     0.000000000000000     0.014515500000000     0.000000000000000
    -0.027719266938135     0.000000000000000    -0.071495443838147
2 8
     0.034215253425471     0.000000000000000     0.028136234285080
     0.000000000000000     0.000462500000000     0.000000000000000
     0.004526917293770     0.000000000000000    -0.065313010970389
2 9
    -0.057929978169549    -0.000000000000000    -0.052641612047276
     0.000000000000000     0.012186500000000     0.000000000000000
     0.008381092652569    -0.000000000000000     0.115141967218579
2 10
     0.190472826688971    -0.000000000000000     0.112883665715042
     0.000000000000000    -0.729039500000000     0.000000000000000
     0.113509942859581    -0.000000000000000     0.314821569046979
2 11
    -0.037772999749839    -0.000000000000000    -0.034735654563764
     0.000000000000000     0.014515500000000     0.000000000000000
    -0.027719266938135    -0.000000000000000    -0.071495443838147
2 12
     0.034215253425471    -0.000000000000000     0.028136234285080
     0.000000000000000     0.000462500000000     0.000000000000000
     0.004526917293770    -0.000000000000000    -0.065313010970389
2 13
    -0.084349513342973     0.009564517592104    -0.002488592787212
     0.008028000000000    -0.001301500000000    -0.003080000000000
    -0.018086303257499     0.013232178268265    -0.041444200036085
2 14
     0.192743911203954    -0.094082802712368     0.089417925863284
    -0.093471500000000    -0.047507500000000     0.157190500000000
     0.095341727969259     0.170760989848507    -0.282326647955708
2 15
    -0.084349513342973    -0.009564517592104    -0.002488592787212
    -0.008028000000000    -0.001301500000000     0.003080000000000
    -0.018086303257499    -0.013232178268265    -0.041444200036085
2 16
     0.192743911203954     0.094082802712368     0.089417925863284
     0.093471500000000    -0.047507500000000    -0.157190500000000
     0.095341727969259    -0.170760989848507    -0.282326647955708
2 17
    -0.084349513342973    -0.009564517592104    -0.002488592787212
    -0.008028000000000    -0.001301500000000     0.003080000000000
    -0.018086303257499    -0.013232178268265    -0.041444200036085
2 18
     0.192743911203954     0.094082802712368     0.089417925863284
     0.093471500000000    -0.047507500000000    -0.157190500000000
     0.095341727969259    -0.170760989848507    -0.282326647955708
2 19
    -0.084349513342973     0.009564517592104    -0.002488592787212
     0.008028000000000    -0.001301500000000    -0.003080000000000
    -0.018086303257499     0.013232178268265    -0.041444200036085
2 20
     0.192743911203954    -0.094082802712368     0.089417925863284
    -0.093471500000000    -0.047507500000000     0.157190500000000
     0.095341727969259     0.170760989848507    -0.282326647955708
2 21
    -0.015503415576544     0.000000000000000     0.000452634981063
    -0.000000000000000    -0.031354000000000     0.000000000000000
     0.000494122398617     0.000000000000000     0.106435029283466
2 22
    -0.015503415576544     0.000000000000000     0.000452634981063
     0.000000000000000    -0.031354000000000    -0.000000000000000
     0.000494122398617     0.000000000000000     0.106435029283466
2 23
    -0.000732278463490     0.000000000000000    -0.003872019449084
    -0.000000000000000    -0.004033000000000     0.000000000000000
    -0.003880614666868     0.000000000000000    -0.057793733531465
2 24
    -0.000732278463490     0.000000000000000    -0.003872019449084
     0.000000000000000    -0.004033000000000    -0.000000000000000
    -0.003880614666868     0.000000000000000    -0.057793733531465
2 25
    -0.342360274246058    -0.294963722737455    -0.067352039978023
    -0.291159000000000    -0.105557500000000     0.044390000000000
    -0.063649797306469     0.039291788793129     0.265008143136431
2 26
    -0.342360274246058     0.294963722737455    -0.067352039978023
     0.291159000000000    -0.105557500000000    -0.044390000000000
    -0.063649797306469    -0.039291788793129     0.265008143136431
2 27
     0.008739428678745    -0.038909434860116     0.001271520238022
    -0.013382500000000    -0.001524500000000     0.001330500000000
     0.009123213709283    -0.009730537613571    -0.080122478633611
2 28
     0.008739428678745     0.038909434860117     0.001271520238022
     0.013382500000000    -0.001524500000000    -0.001330500000000
     0.009123213709283     0.009730537613572    -0.080122478633611
2 29
    -0.342360274246058     0.294963722737455    -0.067352039978023
     0.291159000000000    -0.105557500000000    -0.044390000000000
    -0.063649797306469    -0.039291788793129     0.265008143136431
2 30
    -0.342360274246058    -0.294963722737455    -0.067352039978023
    -0.291159000000000    -0.105557500000000     0.044390000000000
    -0.063649797306469     0.039291788793129     0.265008143136431
2 31
     0.008739428678745     0.038909434860116     0.001271520238022
     0.013382500000000    -0.001524500000000    -0.001330500000000
     0.009123213709283     0.009730537613571    -0.080122478633611
2 32
     0.008739428678745    -0.038909434860117     0.001271520238022
    -0.013382500000000    -0.001524500000000     0.001330500000000
     0.009123213709283    -0.009730537613572    -0.080122478633611
2 33
    -0.004756755087328     0.045025923349633     0.013388277782237
     0.012259000000000     0.005569500000000    -0.003758000000000
     0.005123238419289    -0.015547363274951    -0.028032314008493
2 34
    -0.031704741231312    -0.067458383381070    -0.049229765749851
    -0.022153000000000    -0.064504500000000    -0.049962500000000
    -0.035857320471820    -0.075449136532020    -0.094252860773672
2 35
    -0.031704741231312     0.067458383381070    -0.049229765749851
     0.022153000000000    -0.064504500000000     0.049962500000000
    -0.035857320471820     0.075449136532020    -0.094252860773672
2 36
    -0.004756755087328    -0.045025923349632     0.013388277782237
    -0.012259000000000     0.005569500000000     0.003758000000000
     0.005123238419289     0.015547363274951    -0.028032314008493
2 37
    -0.004756755087328    -0.045025923349633     0.013388277782237
    -0.012259000000000     0.005569500000000     0.003758000000000
     0.005123238419289     0.015547363274951    -0.028032314008493
2 38
    -0.031704741231312     0.067458383381070    -0.049229765749851
     0.022153000000000    -0.064504500000000     0.049962500000000
    -0.035857320471820     0.075449136532020    -0.094252860773672
2 39
    -0.031704741231312    -0.067458383381070    -0.049229765749851
    -0.022153000000000    -0.064504500000000    -0.049962500000000
    -0.035857320471820    -0.075449136532020    -0.094252860773672
2 40
    -0.004756755087328     0.045025923349632     0.013388277782237
     0.012259000000000     0.005569500000000    -0.003758000000000
     0.005123238419289    -0.015547363274951    -0.028032314008493
2 41
     0.086545930640809     0.000000000000000     0.048995561967682
     0.000000000000000    -0.153533000000000     0.000000000000000
     0.107921384362839     0.000000000000000    -0.030166567684736
2 42
    -0.088822494086577     0.000000000000000     0.228282526263768