# epsilon and Z* of atoms 1 5 9 13 17 21
   6.92401803    0.00000000   -0.32982436    0.00000000    6.96617207    0.00000000   -0.32982737    0.00000000    6.25336688 
   5.24393284    0.43561783   -0.30041303    1.13807742    4.11913323   -0.52629032   -0.07957020   -0.10539197    3.78648484 
   4.73844576    0.03852108   -0.26832475    0.40243993    4.44096925    0.13382490   -0.53507757    0.24418455    4.68098630 
  -2.30297864    0.62637758    0.17048691    0.48946007   -1.98992415    0.03501254    0.15000017    0.14264931   -1.25440477 
  -3.14530672   -0.66121074    0.88237286   -1.53338170   -2.01132833   -0.83976235    1.18004397   -0.91926809   -3.68773787 
  -3.20818813   -1.34027972   -0.02555169   -2.06736310   -2.69690831   -0.90347953   -0.27138587   -1.60771654   -2.73658197 
  -2.65181019   -1.57853494   -0.91714060   -2.22608551   -3.72388338   -1.41824098   -0.88802103   -0.92364281   -1.57749306 
