132  
33   

1    
  0.0099997895157359   0.0000000000000000  -0.0000648817461053
  -0.1508957800    0.0308521000    0.0175374800
  -0.0017453100   -0.0006187900   -0.0053800900
  -0.0106518200   -0.0000136900   -0.0053315000
  -0.0033265200   -0.0002818700   -0.0061356400
  -0.0106557600    0.0007280200   -0.0067856500
  -0.0033157500   -0.0004764100   -0.0043432400
   0.0116708500    0.0012356100    0.0015233900
   0.0136352300   -0.0113659500    0.0094468400
   0.0065108200   -0.0004016800    0.0045847200
   0.0051706900    0.0000022100    0.0048091000
   0.0117104300   -0.0041152600    0.0055596300
   0.0135798800    0.0186754800    0.0221596600
   0.0058053600    0.0010921900    0.0058617100
   0.0081033600    0.0001795400    0.0028576000
   0.0058107700    0.0014228800    0.0061061200
   0.0062484000    0.0005592600    0.0048608200
   0.0064148900    0.0007073300    0.0051753100
   0.0066798500    0.0015502600    0.0042834000
  -0.0087483400    0.0011329100   -0.0051488500
  -0.0037866100    0.0006123900   -0.0053100100
  -0.0084595000   -0.0004124100   -0.0050059600
  -0.0047972800    0.0005150300   -0.0044134200
  -0.0069470900    0.0010008800   -0.0049402500
  -0.0055776500    0.0010808300   -0.0044780600
   0.0129889600   -0.0035046200    0.0041995700
   0.0329050300    0.0014132600   -0.0292196600
   0.0137538900    0.0028057200    0.0039335900
   0.0085946000   -0.0034525800    0.0013705100
   0.0094788700   -0.0012743000    0.0017920500
   0.0081266000    0.0006150200    0.0014193400
  -0.0140508100   -0.0023690700    0.0054912900
  -0.0045357300   -0.0015995000   -0.0014747700
  -0.0087835800   -0.0008364400   -0.0021119100
  -0.0065399200   -0.0005511200   -0.0013650000
  -0.0144929500   -0.0006592600   -0.0001509400
  -0.0050755600   -0.0012969500   -0.0015231300
  -0.0155561600   -0.0099719300   -0.0116785400
  -0.0048334300   -0.0001824600   -0.0005953700
  -0.0089039600    0.0011521800   -0.0015546600
  -0.0065848300    0.0018017900   -0.0008882800
  -0.0127825200    0.0054715100   -0.0033964100
  -0.0056086000    0.0005682200   -0.0013704300
   0.0123796700    0.0009936500   -0.0009336800
   0.0080018900    0.0003654400    0.0052328900
   0.0081908000    0.0015141500    0.0007753100
   0.0082479600   -0.0004545600    0.0021481400
   0.0079811000    0.0008566700    0.0014797700
   0.0077506200    0.0018498600    0.0018839000
  -0.0003603500   -0.0018572300   -0.0008897000
  -0.0002564600   -0.0030111900   -0.0023133600
   0.0030377600   -0.0046803300   -0.0009955400
   0.0017507500   -0.0037720300   -0.0014695000
   0.0028359800   -0.0043037900   -0.0013672500
   0.0018083500   -0.0056757600   -0.0017099900
  -0.0056792300   -0.0064861000    0.0009326100
  -0.0039815800   -0.0039888200    0.0011896800
  -0.0019523700   -0.0046693500    0.0016409200
  -0.0032364500   -0.0045942000    0.0014409700
  -0.0020983900   -0.0014168000    0.0011038100
  -0.0048202500   -0.0058250700    0.0017287100
  -0.0014940800    0.0037152500    0.0013224300
  -0.0033767900    0.0049052100    0.0015418100
  -0.0023405400    0.0041385200    0.0014569500
  -0.0027387200    0.0043618000    0.0014219500
  -0.0019325600    0.0043530000    0.0015777000
  -0.0031156600    0.0042415500    0.0014476000
   0.0034500700    0.0045115100   -0.0019284400
   0.0006195300    0.0040389700   -0.0004175500
   0.0036010600    0.0042470900   -0.0022637600
   0.0021622100    0.0044290900   -0.0014663000
   0.0029407900    0.0040882500   -0.0015732500
   0.0021545400    0.0041482900   -0.0015077400
  -0.0033311700   -0.0026273600   -0.0003662000
  -0.0020018400    0.0014768400    0.0077505800
  -0.0035600000   -0.0038706400   -0.0019707700
  -0.0022220700   -0.0016481700    0.0012511700
  -0.0031336200   -0.0025509200    0.0005410800
  -0.0027503500   -0.0028696500    0.0012190500
   0.0023100500   -0.0008853000   -0.0024033200
   0.0017815500   -0.0019329700   -0.0009110500
   0.0029738600   -0.0025149900   -0.0008018400
   0.0023069600   -0.0020937800   -0.0010754000
   0.0041671900   -0.0023195800   -0.0019543200
   0.0000100600   -0.0015056400   -0.0003682800
   0.0395149100   -0.0095058400   -0.0258119600
   0.0004559100    0.0022316400   -0.0002993200
   0.0036239300    0.0026901800   -0.0012176100
  -0.0009000500    0.0011217000   -0.0000665900
   0.0031226300    0.0010806100   -0.0009867100
   0.0013593400    0.0019089300   -0.0007020700
  -0.0051710900    0.0032017900    0.0017644100
   0.0014373500    0.0012614800   -0.0050006500
  -0.0050386700    0.0015856600    0.0032503400
  -0.0018050100    0.0034203500   -0.0011623200
  -0.0029519600    0.0022049900    0.0010967300
  -0.0020222400    0.0016901600    0.0011169600
  -0.0128690700    0.0046796300    0.0025688500
   0.0338814700    0.0140015200    0.0016314300
  -0.0126995700    0.0040134700    0.0030464900
  -0.0091030600    0.0081150200    0.0037457500
  -0.0117258300    0.0049694300    0.0032691200
  -0.0094199000    0.0051619900    0.0026925200
   0.0458008700   -0.0250904300    0.0117557700
   0.0083433300    0.0062744100   -0.0031759700
   0.0119418500    0.0041100600   -0.0022772400
   0.0101037800    0.0051344000   -0.0025181200
   0.0159894000    0.0006687000   -0.0033289900
   0.0074289600    0.0070091200   -0.0030829200
   0.0102609400   -0.0038274400   -0.0006503400
   0.0099079200   -0.0058475600   -0.0033721400
   0.0107511600   -0.0051987200   -0.0028314600
   0.0100655500   -0.0061691300   -0.0036421600
   0.0106613300   -0.0056374500   -0.0023091400
   0.0098857500   -0.0054879200   -0.0029138500
  -0.0119727100   -0.0053933900    0.0039626200
  -0.0093516700   -0.0060230600    0.0029202200
  -0.0111526900   -0.0050351800    0.0026742600
  -0.0102078000   -0.0050362200    0.0026449200
  -0.0106554500   -0.0052673700    0.0028299500
  -0.0100303500   -0.0058561600    0.0030442400
   0.0007501900    0.0000668900   -0.0012946900
  -0.0017913900   -0.0009794500   -0.0003803700
   0.0006534200    0.0007790800    0.0003224000
  -0.0007262200   -0.0007391700   -0.0002866500
   0.0007127800   -0.0003412800   -0.0003275600
  -0.0005163300   -0.0001151900   -0.0001096900
   0.0035300400   -0.0068069300    0.0058620100
  -0.0026827600    0.0024277900   -0.0014992500
  -0.0011388800    0.0033647100   -0.0002939100
  -0.0027335100    0.0011252600   -0.0013869400
   0.0006311700   -0.0007807200    0.0003272400
  -0.0007610600    0.0003683800   -0.0003677500

1    
 -0.0099997895157359   0.0000000000000000   0.0000648817461053
   0.1425836600   -0.0319060700   -0.0283948600
  -0.0105190200   -0.0009452300   -0.0043785700
  -0.0016650500   -0.0015809100   -0.0044311500
  -0.0089471100   -0.0012880300   -0.0036258300
  -0.0016502300   -0.0022950700   -0.0029815900
  -0.0089598800   -0.0010994300   -0.0054102900
   0.0006341300   -0.0027822300    0.0082377500
  -0.0011915400    0.0097847000    0.0002747100
   0.0057768600   -0.0011718900    0.0051753300
   0.0071172100   -0.0015775200    0.0049497300
   0.0006209500    0.0025120600    0.0042099600
  -0.0014122900   -0.0203609300   -0.0124373900
   0.0064723900    0.0004843700    0.0038979200
   0.0041998900    0.0013908600    0.0068904100
   0.0064777100    0.0001485600    0.0036564600
   0.0060420100    0.0010048800    0.0048990600
   0.0058714700    0.0008610000    0.0045861000
   0.0056068600    0.0000240900    0.0054751900
  -0.0035526500    0.0004476000   -0.0046158100
  -0.0084875100    0.0009569300   -0.0044556800
  -0.0038479400    0.0019778600   -0.0047500900
  -0.0074811100    0.0010548300   -0.0053452800
  -0.0053436900    0.0005663400   -0.0048212000
  -0.0067012100    0.0004890700   -0.0052802500
   0.0026478300    0.0016120200   -0.0011648200
  -0.0174127700   -0.0032866500    0.0325180700
   0.0018459200   -0.0047056700   -0.0009310100
   0.0070353600    0.0015388800    0.0016314400
   0.0061382100   -0.0006205200    0.0012207600
   0.0074868000   -0.0025049800    0.0015953900
  -0.0016439900    0.0004422300   -0.0083530600
  -0.0110611100   -0.0002862200   -0.0015387400
  -0.0068386700   -0.0010648300   -0.0009027300
  -0.0090652800   -0.0013429600   -0.0016457200
  -0.0011529600   -0.0012212500   -0.0028474700
  -0.0105232000   -0.0006044000   -0.0014919300
  -0.0001043900    0.0117971000    0.0085768700
  -0.0107678800    0.0020790400   -0.0024124200
  -0.0067171100    0.0007338800   -0.0014625600
  -0.0090233900    0.0000871200   -0.0021246100
  -0.0028446100   -0.0035601600    0.0003791200
  -0.0099952500    0.0013187400   -0.0016386800
   0.0032637900    0.0009028700    0.0039289300
   0.0076258100    0.0015463100   -0.0022097600
   0.0074241200    0.0003829500    0.0022340100
   0.0073688500    0.0023198300    0.0008934200
   0.0076335500    0.0010301100    0.0015301700
   0.0078638000    0.0000418300    0.0011293100
   0.0054849200   -0.0067546700   -0.0020496700
   0.0053988600   -0.0056304700   -0.0006339500
   0.0021140200   -0.0039654300   -0.0019509900
   0.0033823700   -0.0048624800   -0.0014847300
   0.0023119100   -0.0043372900   -0.0015819300
   0.0033347300   -0.0029668500   -0.0012401200
   0.0006738500   -0.0020205600    0.0020758900
  -0.0011723800   -0.0046622000    0.0017625000
  -0.0031880700   -0.0039718700    0.0013104600
  -0.0019110600   -0.0040489500    0.0015083100
  -0.0030405800   -0.0071993800    0.0018378600
  -0.0003297500   -0.0028208500    0.0012188500
  -0.0036415700    0.0049182200    0.0016291500
  -0.0017762000    0.0037393200    0.0014106200
  -0.0028042400    0.0045061100    0.0014926800
  -0.0024104200    0.0042865200    0.0015274000
  -0.0032082100    0.0042930700    0.0013755000
  -0.0020353600    0.0044030800    0.0015025700
   0.0017035800    0.0041332300   -0.0010239400
   0.0045222400    0.0046019800   -0.0025354900
   0.0015481400    0.0043904200   -0.0006978900
   0.0029799300    0.0042147200   -0.0014829600
   0.0022068000    0.0045574900   -0.0013777800
   0.0029897100    0.0044969300   -0.0014419200
  -0.0017045200   -0.0017754400    0.0021441600
  -0.0030763700   -0.0058732300   -0.0059054100
  -0.0014734700   -0.0005195000    0.0037613200
  -0.0028069600   -0.0027312200    0.0005439500
  -0.0018985700   -0.0018397400    0.0012451900
  -0.0022801900   -0.0015281800    0.0005682500
   0.0027193200   -0.0034909200    0.0005981000
   0.0032466900   -0.0024541700   -0.0008741600
   0.0020574700   -0.0018732000   -0.0009865400
   0.0027200100   -0.0022973700   -0.0007111000
   0.0008712800   -0.0020829400    0.0001674500
   0.0050055100   -0.0028763400   -0.0014153700
  -0.0351053900    0.0144903800    0.0254326700
   0.0045658200    0.0021534800   -0.0014905000
   0.0014118100    0.0017112200   -0.0005645700
   0.0059316700    0.0032756400   -0.0017207400
   0.0019129800    0.0033043000   -0.0008042300
   0.0036692800    0.0024806000   -0.0010869500
   0.0001230900    0.0011977300    0.0000265400
  -0.0064652000    0.0031271000    0.0067854200
   0.0000003600    0.0027998900   -0.0014548700
  -0.0032562900    0.0010323500    0.0028718500
  -0.0020834500    0.0021830900    0.0006923200
  -0.0030088000    0.0026977300    0.0006712100
  -0.0080461500    0.0060878600    0.0032637900
  -0.0578275100   -0.0051146800    0.0040796300
  -0.0082077400    0.0067462500    0.0027841900
  -0.0117963200    0.0026993900    0.0021139300
  -0.0091730300    0.0058034700    0.0025695200
  -0.0114686800    0.0056126600    0.0031457200
  -0.0250332200    0.0365849900   -0.0180951800
   0.0125440400    0.0044981200   -0.0026617600
   0.0089574700    0.0066630000   -0.0035613600
   0.0107908700    0.0056411400   -0.0033220500
   0.0049184600    0.0100921900   -0.0025020300
   0.0134433400    0.0037755900   -0.0027555400
   0.0106321900   -0.0069394800   -0.0051784000
   0.0109858300   -0.0049268900   -0.0024654600
   0.0101475800   -0.0055681100   -0.0030034200
   0.0108295900   -0.0046054600   -0.0021975900
   0.0102389900   -0.0051371000   -0.0035296400
   0.0110092400   -0.0052826200   -0.0029220400
  -0.0089300500   -0.0053837700    0.0018870300
  -0.0115393100   -0.0047572200    0.0029205700
  -0.0097467400   -0.0057357800    0.0031630400
  -0.0106804300   -0.0057285700    0.0031803600
  -0.0102441800   -0.0055008100    0.0030065500
  -0.0108651900   -0.0049176100    0.0027941300
  -0.0007628000   -0.0000895000    0.0012633000
   0.0017788800    0.0009678600    0.0003769400
  -0.0006437300   -0.0007630100   -0.0003191500
   0.0007232300    0.0007357000    0.0002851800
  -0.0007061200    0.0003427900    0.0003294500
   0.0005170100    0.0001208100    0.0001124200
  -0.0035337800    0.0067853800   -0.0058576700
   0.0026689300   -0.0024149600    0.0014906500
   0.0011228900   -0.0033271000    0.0002954000
   0.0027342000   -0.0011260800    0.0013882300
  -0.0006303900    0.0007815700   -0.0003269300
   0.0007559800   -0.0003624400    0.0003651800

1    
  0.0000000000000000   0.0100000000000000   0.0000000000000000
   0.0268938700   -0.1426284300    0.0157651200
  -0.0059762600   -0.0022859300   -0.0054427100
  -0.0046318500    0.0048062400   -0.0047636400
  -0.0058294100   -0.0000337100   -0.0047847200
  -0.0053837100    0.0047772200   -0.0064926700
  -0.0056318200   -0.0000294700   -0.0048486600
   0.0094485700   -0.0011110100    0.0026562000
  -0.0134347000    0.0143193800    0.0014092700
   0.0057622900    0.0006425700    0.0050862200
   0.0053526300    0.0018628000    0.0054988300
   0.0041441300   -0.0011105400    0.0051871100
   0.0167195300    0.0143017200    0.0186763200
   0.0064512700   -0.0005326800    0.0056947500
   0.0055415600   -0.0006841300    0.0045418400
   0.0067813900    0.0016668300    0.0051462200
   0.0059189200    0.0016457900    0.0047197300
   0.0060642100    0.0009698700    0.0044656700
   0.0068995000    0.0012033600    0.0043524100
  -0.0064874300   -0.0005563800   -0.0047826100
  -0.0059652800    0.0004302900   -0.0045752800
  -0.0049567900    0.0013370500   -0.0059689400
  -0.0058716800    0.0006243100   -0.0048269100
  -0.0063603200    0.0017701000   -0.0047892000
  -0.0064360800    0.0015267300   -0.0048669900
   0.0086226600   -0.0051962000    0.0011408500
   0.0096683200   -0.0155997400   -0.0146911300
   0.0098995600    0.0016647200    0.0024569800
   0.0061874000    0.0006699400    0.0038074100
   0.0062379100    0.0010399500    0.0010400500
   0.0090242900    0.0010690100    0.0006456200
  -0.0029417700    0.0029170600   -0.0217683200
  -0.0071114400   -0.0030374300   -0.0016557000
  -0.0077664700    0.0011021900   -0.0017911100
  -0.0084297600    0.0004765800   -0.0016896500
  -0.0104106400    0.0010844900    0.0039200200
  -0.0076505100   -0.0002419500   -0.0012368600
  -0.0116279100    0.0022184600    0.0056630900
  -0.0071990500   -0.0001507500   -0.0008956900
  -0.0078487300    0.0028097100   -0.0010820000
  -0.0075100900    0.0022648600   -0.0014545500
  -0.0078419600    0.0030932100   -0.0051628200
  -0.0076275900    0.0006063600   -0.0019829000
   0.0067751000    0.0001377200    0.0027782900
   0.0067275700   -0.0048149400    0.0036450500
   0.0082191600    0.0011769400    0.0008880100
   0.0065701900    0.0033211300   -0.0007905900
   0.0074605800    0.0018289300    0.0017278800
   0.0081068300    0.0027122600    0.0021322000
   0.0047423100   -0.0036647400   -0.0026166300
   0.0005782800   -0.0025040900   -0.0026053500
   0.0020828500   -0.0048391500   -0.0014074600
   0.0049717100   -0.0066247600   -0.0007026600
   0.0031662000   -0.0050612100   -0.0016571300
   0.0021408500   -0.0056653900   -0.0016525300
   0.0011773200    0.0062076200    0.0055293400
  -0.0019854300   -0.0034212700    0.0009487400
  -0.0031690500   -0.0057784600    0.0012425300
  -0.0027341300   -0.0048928000    0.0014561100
  -0.0009292700   -0.0055569300    0.0014316300
  -0.0032718100   -0.0043098300    0.0020080600
  -0.0039521900    0.0049488500    0.0022802800
  -0.0025575900    0.0047874000    0.0013833000
  -0.0024787600    0.0039008200    0.0015214200
  -0.0023841700    0.0037387100    0.0015389400
  -0.0022405500    0.0042514200    0.0011406600
  -0.0025095600    0.0044551000    0.0014038900
   0.0028980700    0.0051141900   -0.0014640100
   0.0021634300    0.0046724900   -0.0010030800
   0.0021863200    0.0035216000   -0.0018394500
   0.0028396300    0.0042534700   -0.0016095100
   0.0025545100    0.0037677500   -0.0012888200
   0.0022532800    0.0040027100   -0.0013786100
  -0.0025265000   -0.0013523800    0.0011262400
   0.0014306000    0.0003331700    0.0020231600
  -0.0031586100   -0.0029596200    0.0001246100
  -0.0028739500   -0.0028794900    0.0003573900
  -0.0023717600   -0.0022984500    0.0010922600
  -0.0033783100   -0.0027327600    0.0013234600
   0.0038862000   -0.0043573600    0.0024539700
   0.0021637200   -0.0017801600   -0.0011073700
   0.0029762300   -0.0029560000   -0.0005942900
   0.0029648800   -0.0027429400   -0.0005175500
   0.0022805300   -0.0009435200   -0.0024777000
   0.0027826500   -0.0023463000   -0.0010227600
  -0.0143455200    0.0294577400    0.0259885200
   0.0026036800    0.0030909100   -0.0005142600
   0.0025695800    0.0011093000   -0.0022202900
   0.0015160000    0.0013896800   -0.0010875600
   0.0013031300    0.0008143500    0.0002143400
   0.0024052200    0.0020596200   -0.0006905900
  -0.0017431600    0.0023421200    0.0001146300
  -0.0015347800    0.0028234100   -0.0053983800
  -0.0042565200    0.0019948200    0.0023732300
  -0.0017785300   -0.0011254700    0.0049810100
  -0.0018227600    0.0016590800    0.0008609600
  -0.0018974100    0.0012523600    0.0010487600
  -0.0098107500    0.0062560600    0.0036708300
  -0.0006702500    0.0185116300    0.0056047000
  -0.0111002500    0.0051559600    0.0031285300
  -0.0108926200    0.0009112800    0.0007533100
  -0.0107485700    0.0046697700    0.0023807700
  -0.0123620300    0.0033375600    0.0027614900
  -0.0224232600    0.0753182700   -0.0420324800
   0.0093800700    0.0063806000   -0.0031576900
   0.0118648300    0.0031883700   -0.0019948900
   0.0110216500    0.0047735900   -0.0028299600
   0.0123006700    0.0007032500   -0.0042001100
   0.0106202900    0.0051690800   -0.0027877900
   0.0118538400   -0.0048445700   -0.0036093700
   0.0106771900   -0.0052486800   -0.0032232200
   0.0101690200   -0.0060507800   -0.0032306900
   0.0098425100   -0.0059190100   -0.0029661700
   0.0100723700   -0.0050244300   -0.0018164100
   0.0103081600   -0.0053062900   -0.0027705400
  -0.0105683700   -0.0044804400    0.0019650900
  -0.0105811800   -0.0044537200    0.0026973900
  -0.0107902200   -0.0053461500    0.0029595000
  -0.0104046800   -0.0063157900    0.0038852700
  -0.0099725500   -0.0057599300    0.0029837700
  -0.0100768400   -0.0058513200    0.0029123200
   0.0031864000    0.0054628400    0.0041547900
   0.0005629200    0.0011825800    0.0002417900
  -0.0007578100   -0.0015663600   -0.0002292500
  -0.0002746000   -0.0006235100   -0.0000858500
  -0.0010394600   -0.0018993200   -0.0013916400
  -0.0003794100   -0.0006130400   -0.0003205700
  -0.0011509200    0.0007084600    0.0030128000
  -0.0008943600    0.0015852100   -0.0004582400
   0.0007846500    0.0000806300   -0.0006585700
  -0.0012570200    0.0000700300   -0.0006544000
   0.0008428200   -0.0015966600    0.0006658500
   0.0013847600   -0.0017852800    0.0008266900

1    
  0.0000000000000000  -0.0100000000000000   0.0000000000000000
  -0.0361659700    0.1383366300   -0.0231455700
  -0.0062957600    0.0007168700   -0.0043196800
  -0.0076578000   -0.0063590500   -0.0049971300
  -0.0064541000   -0.0015401200   -0.0049714400
  -0.0069299100   -0.0063890200   -0.0032662200
  -0.0066377100   -0.0015368500   -0.0049130700
   0.0028494000   -0.0004536700    0.0071038400
   0.0256472100   -0.0158697900    0.0082648800
   0.0065297700   -0.0022167100    0.0046729200
   0.0069236900   -0.0034371200    0.0042539700
   0.0081580900   -0.0004523500    0.0045570700
  -0.0046113800   -0.0158862800   -0.0089054200
   0.0058330600    0.0021055500    0.0040690700
   0.0067568100    0.0022543800    0.0052049600
   0.0055031700   -0.0001010500    0.0046113300
   0.0063672900   -0.0000792400    0.0050419100
   0.0062234400    0.0006024100    0.0053019100
   0.0053811000    0.0003727700    0.0054092100
  -0.0058038800    0.0021366400   -0.0049772200
  -0.0063137300    0.0011421400   -0.0051848800
  -0.0073336900    0.0002286100   -0.0037974400
  -0.0064117600    0.0009453700   -0.0049322300
  -0.0059272300   -0.0002012000   -0.0049709400
  -0.0058448000    0.0000425700   -0.0048919800
   0.0070095800    0.0033094900    0.0018789900
   0.0060174500    0.0138101400    0.0176280300
   0.0056861300   -0.0035604500    0.0005458600
   0.0094233000   -0.0025705000   -0.0007881500
   0.0093981900   -0.0029422700    0.0019753900
   0.0065758100   -0.0029620000    0.0023736500
  -0.0126939600   -0.0048024200    0.0187225400
  -0.0084939200    0.0011419400   -0.0013559800
  -0.0078508700   -0.0030001500   -0.0012273200
  -0.0071763100   -0.0023702300   -0.0013206400
  -0.0052082700   -0.0029638700   -0.0069605500
  -0.0079570500   -0.0016509700   -0.0017740600
  -0.0040272800   -0.0004183000   -0.0087258300
  -0.0084036700    0.0020452700   -0.0021150300
  -0.0077668900   -0.0009223500   -0.0019276900
  -0.0081029800   -0.0003845300   -0.0015577900
  -0.0077935600   -0.0011910300    0.0021757900
  -0.0079714900    0.0012853900   -0.0010270200
   0.0088378100    0.0017551900    0.0002357400
   0.0088869500    0.0067116600   -0.0006286200
   0.0073980800    0.0007171900    0.0021215300
   0.0090399000   -0.0014420600    0.0038184900
   0.0081570700    0.0000633300    0.0012823400
   0.0075024600   -0.0008197900    0.0008785000
   0.0003756200   -0.0049928100   -0.0002980400
   0.0045683700   -0.0061359000   -0.0003430900
   0.0030613800   -0.0038071300   -0.0015405900
   0.0001711000   -0.0020144900   -0.0022489800
   0.0019769400   -0.0035799700   -0.0012900600
   0.0030030700   -0.0029862400   -0.0012980600
  -0.0061055500   -0.0145841300   -0.0024534400
  -0.0031656100   -0.0052239300    0.0020028400
  -0.0019783700   -0.0028630300    0.0017062200
  -0.0024091500   -0.0037493800    0.0014942500
  -0.0042281800   -0.0030762700    0.0015271100
  -0.0018844600   -0.0043433700    0.0009405600
  -0.0011932600    0.0036925600    0.0006733800
  -0.0025921200    0.0038570300    0.0015691100
  -0.0026680000    0.0047446900    0.0014295300
  -0.0027623800    0.0049073900    0.0014106100
  -0.0029039900    0.0043915100    0.0018105100
  -0.0026371700    0.0041885200    0.0015458600
   0.0022512800    0.0035282300   -0.0014859300
   0.0029743700    0.0039683700   -0.0019441200
   0.0029647700    0.0051276000   -0.0011105000
   0.0023052100    0.0043919400   -0.0013413400
   0.0025925600    0.0048772400   -0.0016642100
   0.0028930800    0.0046423800   -0.0015716300
  -0.0025080700   -0.0030461300    0.0006539100
  -0.0064812300   -0.0047133700   -0.0001783200
  -0.0018670300   -0.0014217400    0.0016761500
  -0.0021554700   -0.0015043600    0.0014316900
  -0.0026641600   -0.0020961700    0.0006882100
  -0.0016458600   -0.0016633000    0.0004591400
   0.0011476700   -0.0000346500   -0.0042351900
   0.0028649900   -0.0026045100   -0.0006804500
   0.0020559000   -0.0014326100   -0.0011926600
   0.0020625800   -0.0016484100   -0.0012688100
   0.0027563800   -0.0034595700    0.0006924800
   0.0022457900   -0.0020406100   -0.0007650600
   0.0190793400   -0.0250941700   -0.0273227000
   0.0024173700    0.0012956200   -0.0012725900
   0.0024663300    0.0032858200    0.0004305900
   0.0035272300    0.0030118300   -0.0007010200
   0.0037419100    0.0035795000   -0.0020137200
   0.0026152900    0.0023271100   -0.0010942300
  -0.0032931500    0.0020437700    0.0016797300
  -0.0034692300    0.0015682700    0.0071846200
  -0.0007803900    0.0023940900   -0.0005814000
  -0.0032697400    0.0055643300   -0.0032419800
  -0.0032133700    0.0027278200    0.0009296800
  -0.0031323700    0.0031350000    0.0007423200
  -0.0110945500    0.0045139500    0.0021704700
  -0.0212035500   -0.0082940100    0.0001430200
  -0.0097968000    0.0056116600    0.0027036500
  -0.0099839800    0.0098636100    0.0050960700
  -0.0101581600    0.0061000900    0.0034620100
  -0.0085138000    0.0074465600    0.0030744200
   0.0415678500   -0.0615905900    0.0334608500
   0.0115103200    0.0043929800   -0.0026800900
   0.0090368100    0.0075770000   -0.0038394100
   0.0098718100    0.0060040900   -0.0030117000
   0.0086417100    0.0100868400   -0.0016103000
   0.0102712900    0.0056044800   -0.0030516800
   0.0090366900   -0.0059191700   -0.0022137800
   0.0102163100   -0.0055238600   -0.0026131500
   0.0107292500   -0.0047186300   -0.0026071900
   0.0110573300   -0.0048513800   -0.0028722000
   0.0108297100   -0.0057525900   -0.0040296100
   0.0105841300   -0.0054679000   -0.0030676700
  -0.0103293400   -0.0062917400    0.0038734200
  -0.0103119100   -0.0063247400    0.0031467000
  -0.0101068700   -0.0054259500    0.0028797200
  -0.0104885200   -0.0044503300    0.0019451100
  -0.0109272400   -0.0050082400    0.0028518400
  -0.0108187000   -0.0049229200    0.0029267700
  -0.0031856000   -0.0054600200   -0.0041564400
  -0.0005658100   -0.0011840000   -0.0002428600
   0.0007645000    0.0015774600    0.0002323800
   0.0002719200    0.0006206400    0.0000848500
   0.0010431000    0.0018989000    0.0013963300
   0.0003767900    0.0006122900    0.0003204700
   0.0011909700   -0.0007503600   -0.0030095500
   0.0008815600   -0.0015806400    0.0004517600
  -0.0007948000   -0.0000536100    0.0006458200
   0.0012581900   -0.0000765700    0.0006563500
  -0.0008422700    0.0015986900   -0.0006673900
  -0.0014003800    0.0018034900   -0.0008353700

1    
 -0.0010894330239568   0.0000000000000000   0.0099404796507167
   0.0334916000    0.0132208400   -0.1550237200
  -0.0071167500   -0.0013593500   -0.0057590000
  -0.0075551900   -0.0024770900   -0.0063479900
  -0.0059226000   -0.0008082500   -0.0057100000
  -0.0061092400   -0.0008242100   -0.0061936800
  -0.0077006500   -0.0007286200   -0.0059025700
   0.0062049900   -0.0013112400    0.0034663000
   0.0225242200   -0.0133498100    0.0023332200
   0.0058076100   -0.0010324100    0.0044202700
   0.0061751200   -0.0014880300    0.0043700600
   0.0022071000    0.0017726900    0.0030308600
   0.0098694500    0.0005282800    0.0010121800
   0.0071674500    0.0015630400    0.0059455000
   0.0039504500    0.0005198400    0.0086937800
   0.0074015000    0.0009821000    0.0052306600
   0.0061174800    0.0006492900    0.0056334500
   0.0064117000    0.0003754800    0.0054126000
   0.0054984800    0.0001766000    0.0062067300
  -0.0061107600    0.0006516000   -0.0022609100
  -0.0068142000    0.0005001800   -0.0037973800
  -0.0059969300    0.0019978100   -0.0014641600
  -0.0058215100    0.0007629300   -0.0043581900
  -0.0061115000    0.0006702000   -0.0043475500
  -0.0057996800    0.0007406500   -0.0042745600
   0.0092473900   -0.0012384200    0.0004768600
  -0.0235498500   -0.0164853600    0.0105689600
   0.0083895200   -0.0002740100    0.0014563700
   0.0062841700    0.0027384200   -0.0019952500
   0.0078363200   -0.0010864900    0.0013048100
   0.0075625200   -0.0019437300    0.0009556400
  -0.0105465200   -0.0099470300    0.0157754400
  -0.0076404100   -0.0013028200   -0.0014333100
  -0.0080375800   -0.0016321400   -0.0015092400
  -0.0069035200   -0.0015934000   -0.0011888800
  -0.0076072400    0.0025265600    0.0001005100
  -0.0083069100   -0.0003791300   -0.0010431000
  -0.0068172800    0.0172550000    0.0219043600
  -0.0079163700    0.0010753400   -0.0015734000
  -0.0077475900    0.0009950900   -0.0015884400
  -0.0077891900    0.0008962200   -0.0017004200
  -0.0052719200   -0.0049931200    0.0010262000
  -0.0084179200    0.0004599600   -0.0014735600
   0.0052742500    0.0010753300    0.0036653900
   0.0099534000    0.0032809100    0.0058913000
   0.0074930600    0.0009357700    0.0018461500
   0.0082151000   -0.0010320500    0.0039843700
   0.0078658200    0.0011201900    0.0019137100
   0.0080160700    0.0013797900    0.0020134700
   0.0022391700   -0.0059361500    0.0024783600
   0.0023562600   -0.0047722400   -0.0011651400
   0.0030677900   -0.0039638800   -0.0012852000
   0.0004213600   -0.0020996000   -0.0021386900
   0.0026014800   -0.0045048800   -0.0013752300
   0.0026681800   -0.0040513500   -0.0013418600
  -0.0004372500    0.0009874100    0.0052382500
  -0.0022978600   -0.0047834200    0.0023172000
  -0.0023415400   -0.0040201100    0.0017115800
  -0.0023267200   -0.0044099800    0.0016492200
  -0.0028709900   -0.0050922700    0.0024530900
  -0.0013201500   -0.0028348800    0.0021164700
  -0.0017277000    0.0044914900    0.0001103900
  -0.0024269500    0.0043380000    0.0009153200
  -0.0025385000    0.0043028100    0.0013128300
  -0.0028077600    0.0045975700    0.0012130300
  -0.0025634300    0.0043056700    0.0009718400
  -0.0026543900    0.0041558000    0.0011473900
   0.0013554600    0.0043548200   -0.0025016900
   0.0040202700    0.0046086700   -0.0024238400
   0.0015524300    0.0031421600   -0.0018572200
   0.0026045700    0.0041603800   -0.0015121800
   0.0023395500    0.0046555600   -0.0015662500
   0.0026939500    0.0044949800   -0.0015740600
  -0.0025567500   -0.0026042400    0.0004805000
   0.0017974000   -0.0031194700   -0.0055943700
  -0.0027682300   -0.0022889800    0.0009504800
  -0.0021980200   -0.0027965700    0.0003812500
  -0.0021733400   -0.0021067100    0.0007867300
  -0.0013979200   -0.0011442500    0.0002824900
   0.0019010900    0.0000003900   -0.0052002500
   0.0025848500   -0.0020561700   -0.0012190200
   0.0026986800   -0.0020384800   -0.0013432400
   0.0024533900   -0.0019119300   -0.0015684600
   0.0032564200   -0.0022118400   -0.0025842100
   0.0038472700   -0.0022456700   -0.0018676700
  -0.0364005700    0.0301542100    0.0605610400
   0.0021270800    0.0023703300   -0.0004047000
   0.0018685200    0.0022285800    0.0003432900
   0.0020347200    0.0023240900   -0.0003874800
   0.0023694600    0.0033211400    0.0003141200