 132  132
1 1
    14.659988836095650    -3.150577216734950    -2.201201897920412
    -3.152991999999999    14.048252999999995    -1.945534500000000
    -2.202735662714290    -1.942364809634200    14.713141930677780
1 2
    -0.438365830325969    -0.015957951816728     0.050686651536208
    -0.015975000000000     0.150140000000000     0.056151500000000
     0.050691697541206     0.056161261821596     0.093953183837563
1 3
     0.450588651389565    -0.077316075061170     0.046008143240513
    -0.151297500000000    -0.558264500000000    -0.011674500000000
     0.191219762409242     0.161301503638211     0.152535173743636
1 4
    -0.281377390828710    -0.050329910638843     0.126124807138944
    -0.031234500000000    -0.075320500000000    -0.009336000000000
    -0.052706392465259    -0.003213734936870     0.097354409851598
1 5
     0.450584557374837    -0.151233317440656     0.191196609881009
    -0.077310000000000    -0.558312000000000     0.161322500000000
     0.046018070853968    -0.011657241341874     0.152521402804103
1 6
    -0.281394041802886    -0.031212367288113    -0.052721824428414
    -0.050294500000000    -0.075369000000000    -0.003220500000000
     0.126134259328709    -0.009357071987249     0.097374889079386
1 7
    -0.552278013199931    -0.200691948274121     0.336889226944984
    -0.329958500000000     0.032867000000000     0.222382000000000
    -0.066334314756905     0.031484352355711     0.179424264413694
1 8
    -0.752569584320229     1.066502703508117    -0.457277264634316
     1.954095500000000    -1.509458500000000     0.342780500000000
    -1.728566906401245     1.379086698734156     0.206353930482102
1 9
    -0.036505202945512    -0.038377105177522     0.029853082245426
     0.038374000000000    -0.142964000000000    -0.020665000000000
     0.029833573105653     0.020684184413669     0.049621643119555
1 10
     0.097375738877531    -0.078584580137897     0.007370250617516
     0.078553000000000    -0.264996000000000    -0.062243000000000
     0.007350183113157     0.062201461594403     0.052186555643737
1 11
    -0.552299740197015     0.329929833571973    -0.066320658927622
     0.200698000000000     0.032909500000000    -0.031502000000000
     0.336902900220227    -0.222421716195426     0.179439840598141
1 12
    -0.752591162052635    -1.954085563849901    -1.728550216610008
    -1.066545500000000    -1.509400000000000    -1.379087000000000
    -0.457265929330728    -0.342767196817274     0.206324079171522
1 13
     0.032709874022838    -0.030918873769992    -0.098957439382646
    -0.030910500000000     0.131911500000000    -0.081284000000000
    -0.098997716167459    -0.081259060984079    -0.118038821431022
1 14
    -0.193884319084960     0.060782164063902     0.199294364425118
     0.060762500000000     0.146925500000000     0.033156000000000
     0.199325997294166     0.033119437730053    -0.362248328494609
1 15
     0.032550932710126    -0.063890685983960    -0.122802040743990
    -0.063911000000000    -0.088394000000000    -0.026744500000000
    -0.122800707997725    -0.026716479744016    -0.048774265994381
1 16
    -0.010310391520036     0.022386127570436     0.001420785118641
     0.022418500000000    -0.086251500000000     0.016109000000000
     0.001437306799086     0.016130326934695    -0.075713866555478
1 17
    -0.027365045056042     0.007954954295338    -0.029830791523028
     0.007961500000000    -0.018373000000000     0.041812000000000
    -0.029818720444214     0.041812508502388    -0.056974982024647
1 18
    -0.053269624959378    -0.075967006616367     0.058767103469708
    -0.075920000000000    -0.041529500000000     0.052840000000000
     0.058721644418172     0.052879644919658    -0.126943791557064
1 19
     0.259951975745652    -0.034202788110122     0.024960115368685
     0.034177500000000     0.134651000000000    -0.009730500000000
     0.024969143918748     0.009776525533597    -0.260845323077406
1 20
    -0.234777062417354     0.017424928869501     0.042040536021992
    -0.017422500000000     0.035592500000000    -0.030480000000000
     0.042057941832296     0.030449566176488    -0.104320383739031
1 21
     0.230651345644144     0.118811749593939     0.010571774998408
    -0.118845000000000    -0.055422000000000     0.108575000000000
     0.010556250467978    -0.108543812197280    -0.342461116446172
1 22
    -0.134499040326622     0.027024552713128    -0.046967290426632
    -0.027004000000000     0.016053000000000    -0.005266000000000
    -0.046963799799003     0.005237819704162    -0.057535726376675
1 23
     0.080207920514411    -0.021668420000431     0.005608755103705
     0.021654500000000    -0.098565000000000    -0.009087000000000
     0.005584354009245     0.009099028502920    -0.052998412096619
1 24
    -0.056442008276075    -0.029580627747941    -0.040533923721344
     0.029564000000000    -0.074208000000000    -0.001249500000000
    -0.040507581314285     0.001232222960301    -0.065283468996970
1 25
    -0.518377549571551     0.256209889086850    -0.267743838721245
    -0.080654000000000     0.425284500000000     0.036907000000000
    -0.201927139525539     0.057411567076079     0.074180627700691
1 26
    -2.497338924609944    -0.225038438152510     3.083225904512389
    -0.182543500000000     1.470494000000000     1.615958000000000
     2.867315009438418     1.535377691026869    -0.574197330497387
1 27
    -0.596218403138349    -0.376284742025546    -0.243378063956623
    -0.210671500000000    -0.261258500000000    -0.095556000000000
    -0.124434641117194    -0.109017075880796    -0.022031039534921
1 28
    -0.077024779606377     0.247350194703829     0.015339061939354
     0.161795000000000    -0.162022000000000    -0.229778000000000
     0.144700428145850    -0.343395756477545     0.353294911717871
1 29
    -0.167178262636016     0.032806077154672    -0.028454873608342
     0.158014000000000    -0.199111000000000     0.046767000000000
    -0.021846483050518     0.017938271603012     0.016988649132880
1 30
    -0.031853081972487    -0.155462228108357     0.009166402313667
    -0.122424000000000    -0.201550500000000     0.086401500000000
     0.021206039144114     0.083389267303725     0.056057272985938
1 31
     0.622577539158178     0.146583588150484    -0.704025379936365
    -0.487609500000000    -0.385974000000000     2.024543000000000
     0.342690358094247     0.927148721745709    -1.817623910864675
1 32
    -0.326612807989124     0.065944305306119    -0.003247666663793
    -0.069124000000000     0.208968500000000     0.014986000000000
    -0.051930369278850     0.042988559803708    -0.007567352678894
1 33
     0.097465597976943    -0.010980271358122     0.060506094790239
    -0.004220000000000    -0.205117000000000     0.028189500000000
     0.033606752679353     0.067732418698922     0.007062268651200
1 34
    -0.126947747022128    -0.039198043671112    -0.014252629896759
     0.062672500000000    -0.142340500000000     0.018450500000000
    -0.104355232782759     0.060846294947808    -0.033342182403026
1 35
     0.667352022056918    -0.030396947512113    -0.135971598932724
     0.260118500000000    -0.202418000000000    -0.544028500000000
     0.052168039134386    -0.353999058606137    -0.176049045085198
1 36
    -0.272250449924345     0.034282043252552     0.001258024705439
    -0.015327000000000    -0.070451000000000    -0.026860000000000
     0.021158573474888    -0.053355273446359    -0.046546492986139
1 37
     0.772485691307243     1.078618784469004     0.998260420437853
     0.380031500000000    -0.131838000000000    -0.719446000000000
    -0.018351587022528    -1.518981739965703    -2.239627051584061
1 38
    -0.296866534831020     0.113074156806396    -0.090875823469263
    -0.060231000000000     0.109801000000000    -0.060967000000000
    -0.021236521191139    -0.000496784822520    -0.003299953756690
1 39
     0.109383220858444    -0.020962097560192     0.004660530369976
     0.004092000000000    -0.186603000000000    -0.042284500000000
     0.005921313169803    -0.007190981104048     0.008543585287465
1 40
    -0.122028354232117    -0.085763866790028    -0.061736121820670
    -0.029644500000000    -0.132469500000000    -0.005162000000000
    -0.015071377259825    -0.004402100329246     0.012588691342326
1 41
     0.495608618854799    -0.448044396300826     0.187260834993974
     0.002420000000000    -0.214212000000000     0.366930500000000
    -0.199950371964059     0.546923370853549    -0.234211722579803
1 42
    -0.219093021877209     0.037870459484833    -0.013444397778516
    -0.017195000000000     0.033951500000000     0.047794000000000
     0.037620702399558     0.052967497313596    -0.004872679451000
1 43
    -0.454470532396333    -0.004626298440322     0.241897259078253
     0.103135500000000     0.080873500000000    -0.127127500000000
     0.205455859813058    -0.013439999576875    -0.190859918657821
1 44
    -0.020227516989994     0.057555860320465    -0.375274268537611
     0.107969000000000     0.576330000000000    -0.213683500000000
    -0.219336148919569    -0.229471496868884    -0.483012525541454
1 45
    -0.038155984467936    -0.056593271245679     0.072766472758019
    -0.041054000000000    -0.022987500000000     0.061676000000000
     0.027560703314683    -0.004944387027164    -0.026210586480279
1 46
    -0.044257105514833     0.140111316148030    -0.064394761736054
     0.123485500000000    -0.238159500000000     0.230454000000000
    -0.046341843500418     0.214061289757612    -0.255450327270878
1 47
    -0.017428295903202     0.008563955584123     0.002255769929914
     0.034824500000000    -0.088280000000000    -0.022277000000000
    -0.007772458052632    -0.016680296102110    -0.040732188382349
1 48
     0.005525785515319    -0.090751540554597    -0.038087126470121
    -0.030218500000000    -0.176602500000000    -0.062685000000000
    -0.020549815899636    -0.053656135719435    -0.054996176499869
1 49
     0.292726628843070    -0.243995208477048    -0.060657961184397
    -0.218334500000000    -0.066403500000000     0.115929500000000
     0.070430812300160     0.135928406845082    -0.409696808321170
1 50
     0.283110832506161    -0.130762754965943     0.083827096246558
     0.199504500000000    -0.181590500000000     0.113113000000000
     0.052229400251796     0.031441414038204    -0.022374271751621
1 51
    -0.046544591602233     0.035535276448761    -0.047931670643848
     0.048926500000000     0.051601000000000    -0.006656500000000
    -0.054963365388376    -0.032439249176275    -0.024376926809096
1 52
     0.083044789346267    -0.056012765361706    -0.000329306192847
    -0.240030500000000     0.230513500000000    -0.077316000000000
     0.225339401587111    -0.229507753801769     0.066613610834240
1 53
    -0.026240771771785    -0.001555934205016    -0.010807362058491
    -0.059463000000000     0.074062000000000     0.018353500000000
    -0.005659441527878     0.018356248421151    -0.011271980937087
1 54
     0.076310469842771     0.135365329702695     0.023422938349683
     0.043111000000000     0.133957500000000     0.017723500000000
    -0.001562284177958    -0.012795513294362    -0.010951410924714
1 55
     0.316495673407022     0.219976214396718     0.054735222995402
    -0.364143500000000    -1.039587500000000    -0.399139000000000
    -0.179555637571498    -0.509452342894348    -0.374516599933561
1 56
     0.140382425880015    -0.033393106898240     0.028112401252789
    -0.059009000000000    -0.090133000000000     0.052705000000000
    -0.012411649497643     0.042630784576073    -0.081562303850603
1 57
    -0.061980662247041     0.034702221678317    -0.016689422924123
     0.059534000000000     0.145771500000000     0.023184500000000
    -0.029955675255285    -0.026588179140824    -0.025596049428659
1 58
     0.066157347750985     0.027339519678240     0.003255748128823
     0.016249000000000     0.057171000000000     0.001907000000000
    -0.017500262230318     0.011782084940755    -0.017157429667740
1 59
    -0.046943279807190    -0.288843508191401     0.036090171623467
    -0.164945500000000     0.124033000000000     0.004774000000000
     0.025771235365562     0.044938912317832    -0.094493144012965
1 60
     0.223870839951832     0.149351109877812    -0.025929608770733
     0.069367500000000    -0.001677000000000    -0.053375000000000
    -0.101549698739411    -0.133016415222899    -0.067208886851345
1 61
    -0.108005573649710     0.060080685119311     0.016239487279618
     0.137946500000000    -0.062814500000000    -0.080345000000000
    -0.096914824289785    -0.010646982967411     0.139198698891233
1 62
     0.079992655769724    -0.058347736073166    -0.006198668461832
    -0.001726500000000    -0.046518500000000     0.009290500000000
    -0.005938180168821    -0.008015805408895     0.055633831093176
1 63
    -0.023224495332671     0.018405520061409     0.001893660076181
    -0.009462000000000     0.042193500000000    -0.004594500000000
    -0.006011936473894     0.003950672679579     0.016510070096196
1 64
     0.016580132146835    -0.003946094992872     0.005447163140847
    -0.018910500000000     0.058434000000000    -0.006416500000000
     0.025397460924748    -0.028052872295835     0.026902556899580
1 65
    -0.063835285892056    -0.002987010016176    -0.009788145398727
    -0.033172000000000     0.007004500000000     0.033492500000000
    -0.007928618267313     0.001472348735650     0.049638094789899
1 66
     0.054107580252100     0.008191678112331     0.002964417292458
    -0.006380500000000    -0.013329000000000     0.007098500000000
     0.014093543741919     0.017725430849254     0.033268971489856
1 67
    -0.086596696967689    -0.018948432725852     0.045924032567182
    -0.032339500000000    -0.079298000000000    -0.001096000000000
     0.112454704182934    -0.005245526392683     0.107590498170261
1 68
     0.194333776238359     0.027983694588177    -0.105355769784665
     0.040547000000000    -0.035206000000000    -0.047052000000000
    -0.124197363696297    -0.025799925958787     0.083759735383812
1 69
    -0.102055878182882     0.007939802790068     0.078599518590429
     0.038922500000000     0.080300000000000     0.036447500000000
     0.091284524278789     0.119160737206258     0.046910604679514
1 70
     0.040895341171614    -0.010620923142837    -0.000809223809202
    -0.026721000000000     0.006923500000000     0.013408500000000
     0.001307053145811     0.015073640392442     0.003667167595465
1 71
    -0.036574073089265     0.023261964678133     0.009840612835132
     0.001902500000000     0.055474500000000    -0.018769500000000
     0.019450268372312    -0.030906219646592     0.010311945922164
1 72
     0.041710069744619     0.017332029501461     0.003358585543199
     0.031990000000000     0.031983500000000    -0.009651000000000
    -0.007599700944333    -0.015464335735332     0.010405831271642
1 73
     0.081417723168824     0.042892402980183     0.125880633559995
     0.000921500000000    -0.084687500000000    -0.023616500000000
     0.012871024422475     0.045544422018995     0.055483089212611
1 74
    -0.056587329034626    -0.367166917189839    -0.679040771273734
    -0.395591500000000    -0.252327000000000    -0.110074000000000
    -0.440746146960016     0.053067483023412     0.581522799932951
1 75
     0.104567194474630     0.167741951691284     0.286779669225486
     0.064579000000000     0.076894000000000     0.077577000000000
     0.036758181468319     0.027961791728572     0.026067881164564
1 76
    -0.029473431957056    -0.053797860072114    -0.035050591454723
     0.035924000000000     0.068756500000000     0.053715000000000
    -0.035188878443923     0.054833957089780     0.047955908055768
1 77
     0.061574114173300     0.035527566246387     0.035302382581732
    -0.014620000000000     0.010114000000000    -0.020202500000000
    -0.027693746808171    -0.004960031890093     0.014817653331072
1 78
     0.022796260791174     0.066436315867389    -0.032164796423146
     0.086622500000000     0.053473000000000    -0.043216000000000
    -0.109771866048002    -0.098422522642909     0.057933181174638
1 79
     0.020882148594035    -0.131812910118180     0.152995493114581
    -0.136926500000000     0.216135500000000    -0.334458000000000
     0.064457121266107    -0.235680411769434     0.450245712478561
1 80
     0.073264887805910    -0.026168213086439     0.002057530887645
     0.035063500000000    -0.041217500000000     0.021346000000000
     0.000978040156397    -0.016593617341434     0.032827041909722
1 81
    -0.045972693621385     0.032011251701797    -0.008948350871023
    -0.046016500000000     0.076169500000000    -0.029918500000000
    -0.023462064088081    -0.012163989013262     0.044209272237630
1 82
     0.020707315253646    -0.010372373220554     0.018669026748296
    -0.045115000000000     0.054726500000000    -0.037563000000000
     0.008381309152300    -0.029693235768758     0.069917013935501
1 83
    -0.165399174718744     0.011850100764676     0.107270314296064
     0.023792500000000    -0.125802500000000     0.158509000000000
    -0.092505729641276     0.002751365333591     0.181800967999976
1 84
     0.249084312277614    -0.068550512658187    -0.051756914923697
    -0.026843000000000     0.015284500000000     0.012885000000000
    -0.106876062502537    -0.002168526374625     0.092271634759382
1 85
    -3.709211208003976     1.183020513415483     2.525197573281604
     1.671243000000000    -2.727595500000000    -2.665561000000000
     3.372576474692811    -2.591697713782791    -5.716103585359153
1 86
     0.205899234460527    -0.004026018972417    -0.059922466386925
    -0.009315500000000    -0.089764500000000    -0.037916500000000
     0.061558239353632    -0.018176796731393    -0.055825426262891
1 87
    -0.110264693334009    -0.049003807127230     0.031869813079312
    -0.005162500000000     0.108826000000000     0.132544000000000
     0.052962132633862    -0.008442385954481    -0.120659164880197
1 88
     0.342150897067090     0.107694149973600    -0.083098618940847
     0.100561500000000     0.081107500000000     0.019327000000000
     0.085955659733153    -0.000788637652031    -0.060012232878154
1 89
    -0.060432069286218     0.110529283822809     0.008344624424671
     0.121939000000000     0.138257500000000    -0.111403000000000
     0.007968761146032    -0.101344782494123    -0.120149543336486
1 90
     0.115378964265258     0.028428644976189    -0.019512669913842
     0.010503500000000     0.013374500000000    -0.020182000000000
    -0.018566744517825    -0.023959497298445    -0.041345866741961
1 91
     0.264095009665899    -0.099684208593419    -0.086860237955315
    -0.077499500000000    -0.014917500000000     0.078255000000000
    -0.095488971192586     0.080282919862302     0.005408349515494
1 92
    -0.394109826415302     0.095142614639683     0.590040732263038
    -0.096722500000000    -0.062757000000000     0.629150000000000
     0.158129063714139     0.286615596679849     0.111712905033405
1 93
     0.252465186841877     0.060983392258058    -0.235858978185227
     0.173806500000000     0.019963500000000    -0.147731500000000
     0.078353755483902     0.041707979494626    -0.091476225673490
1 94
    -0.071377408433388    -0.121355634882395     0.204027478918969
    -0.074560500000000     0.334490000000000    -0.411149500000000
     0.183116827160043    -0.301021574554341     0.356754341635143
1 95
     0.043737465291256    -0.001147615812381    -0.020357524844442
    -0.069530500000000     0.053437000000000     0.003436000000000
     0.047940245925467    -0.008105770887928    -0.021053124920030
1 96
    -0.049246058684428     0.050392695974330    -0.022418828139788
    -0.061748000000000     0.094132000000000    -0.015322000000000
     0.012789092864377     0.002024496590484    -0.020168424339508
1 97
     0.240625780156686     0.069871982152189     0.033852237355836
    -0.064190000000000    -0.087105500000000    -0.075018000000000
    -0.080960311469871    -0.083380700360302    -0.138016504524589
1 98
    -4.586320664055797    -0.957505763938193     0.113162991141455
    -1.026665000000000    -1.340282000000000    -0.273084000000000
    -0.119467996676825    -0.258255988651227    -1.425576732541176
1 99
     0.224491040860736     0.136409609767910    -0.013448034469197
     0.065172500000000     0.022785000000000    -0.021244000000000
    -0.016211697238600    -0.035797655529441    -0.051285828327338
1 100
    -0.135119236148731    -0.273654488971763    -0.084313998190148
     0.045432000000000     0.447616500000000     0.217138000000000
    -0.069879762590949    -0.441916123949123    -0.419412805066161
1 101
     0.127165919173410     0.041386272984226    -0.035173884509532
     0.029520500000000     0.071516000000000     0.054062000000000
    -0.073480986209554    -0.048796179310877    -0.029768643140293
1 102
    -0.102693847478275     0.022203735516314     0.022304527565036
     0.192411500000000     0.205450000000000     0.015646500000000
    -0.038945612526062    -0.050897495397704    -0.054860100342097
1 103
    -3.552889843878957     3.109106357780142    -1.518838516223482
     3.199555500000000    -6.845443000000000     3.774666500000000
    -1.712432510756677     3.894765091981085    -4.047216457480578
1 104
     0.210020321951862    -0.088922311732808     0.025631875989691
     0.106512500000000    -0.099381000000000     0.023880000000000
    -0.003020671699825    -0.016328176171720    -0.012201200756155
1 105
    -0.149354058892046     0.127644768887597    -0.064351060733117
    -0.141401000000000     0.219431500000000    -0.092226000000000
    -0.020331639027540    -0.000757968800628    -0.022148948383334
1 106
     0.034289472473688     0.025460255197981    -0.040375999023596
    -0.057492000000000     0.061525000000000    -0.009087000000000
    -0.010133707814174     0.018914302872447    -0.027534581461753
1 107
    -0.553603185439748     0.472120679457148     0.040704472955982
    -0.182948000000000     0.469179500000000     0.129490500000000
    -0.006863712293885     0.144299763179951    -0.099316656502367
1 108
     0.299374663470288    -0.160886833736594     0.016175894215766
    -0.017450000000000     0.021770000000000    -0.013194500000000
    -0.208169165652919     0.122230477089695    -0.029815205811316
1 109
     0.017443122370970    -0.154224769294423    -0.223415497029492
    -0.140857500000000    -0.053730000000000     0.069779500000000
    -0.172582405148272     0.212768147769011     0.461178327460468
1 110
     0.054296382111141     0.046220792939407     0.045409413155038
    -0.023044000000000    -0.013759000000000     0.030503500000000
     0.061610434634218     0.028716869633255     0.011475856125451
1 111
    -0.030146554048650    -0.018434781420881    -0.008469368635805
     0.028011500000000     0.066607500000000     0.031175000000000
     0.005098581782947     0.005410859658748     0.019852984669795
1 112
     0.038779888754863     0.078537041798279     0.072359539354397
     0.060741000000000     0.053381500000000     0.004698500000000
     0.088942196205912     0.054235395663231     0.019961901109739
1 113
    -0.021136789112006     0.025218034052132    -0.060174709506334
     0.037867000000000    -0.036408000000000    -0.110660000000000
    -0.002981457346165     0.030825812220597     0.131247558477998
1 114
     0.056239109276875     0.010314262263189    -0.000260639707734
     0.013798500000000    -0.008080500000000    -0.014856500000000
     0.009775558755571     0.007559162190111     0.022944169548056
1 115
     0.152173114900947     0.000215102942628    -0.103065379313213
     0.011951500000000    -0.090565000000000     0.095416500000000
     0.005689103415386    -0.040982495218063     0.110399317810628
1 116
    -0.109316219312242     0.062539067933731     0.001604787347487
     0.013463500000000    -0.093551000000000     0.022465500000000
     0.010493185871531    -0.116249709743352     0.244637924303527
1 117
     0.070593107569730    -0.035353796302674     0.024774390437529
     0.034167500000000    -0.003990000000000    -0.003989000000000
     0.045331963696310    -0.049790916596131     0.051612201535371
1 118
    -0.023727202063917    -0.034981896248046     0.027594161428651
    -0.004192000000000     0.093273000000000    -0.097008000000000
    -0.014673255478574    -0.056049652792467     0.126627389719370
1 119
     0.020844224399463    -0.011983856012638     0.009110713788061
    -0.047734500000000     0.037584500000000    -0.006596500000000
     0.043199463356739    -0.048026415753498     0.043235892791305
1 120
    -0.041646407815738     0.046635935012207    -0.012128054497770
    -0.037093000000000     0.046420000000000     0.000722500000000
     0.014868400035979    -0.045089199721090     0.058213719784846
1 121
    -0.074179843451105    -0.006578692691645     0.130718854325172
    -0.318600000000000    -0.546143000000000    -0.415561500000000
     0.226753749118123     0.191262697750222     0.434113301207202
1 122
     0.178323032692183     0.097189633118928     0.037918282227522
    -0.056436500000000    -0.118329000000000    -0.024232500000000
    -0.029934571540675    -0.027421051465494     0.008012131372819
1 123
    -0.065227595012062    -0.077756009522109    -0.032140045781059
     0.076115500000000     0.157191000000000     0.023081500000000
    -0.056829862937116    -0.100162668157839    -0.009535699543285
1 124
     0.072639349124022     0.073800086139705     0.028712635960974
     0.027326000000000     0.062207500000000     0.008535000000000
     0.025480229795166     0.008482010322849     0.018577121055463
1 125
    -0.070326106614357     0.035172790858929     0.033354675578352
     0.104128000000000     0.189911000000000     0.139398500000000
     0.095616051780709     0.149279355931226     0.077598638313475
1 126
     0.051861771197792     0.012076743360035     0.011277983324501
     0.037810000000000     0.061266500000000     0.032052000000000
     0.029851167815868     0.042614322238236     0.026547673427239
1 127
    -0.352831830818533     0.675193380547963    -0.583813100270872
     0.117094500000000    -0.072941000000000    -0.301117500000000
     0.056502137858373    -0.683756445614168     0.336487256779923
1 128
     0.267915214790269    -0.242443888111586     0.149573470320991
     0.088796000000000    -0.158292500000000     0.045500000000000
     0.050102781768392    -0.046436026669193     0.011609125729380
1 129
     0.110560302025232    -0.330186360625023     0.028936888075593
    -0.078972500000000    -0.006712000000000     0.065219500000000
    -0.390021114882072     0.679865993608038    -0.081567009541783
1 130
     0.273557627034931    -0.112496256808373     0.138851586588733
     0.125760500000000    -0.007330000000000     0.065537500000000
     0.025641892725844     0.011268355924189     0.013896663814266
1 131
    -0.063024271588732     0.077965897866608    -0.032705700146551
    -0.084254500000000     0.159767500000000    -0.066662000000000
     0.008485433317529    -0.023156465704859     0.000537633029442
1 132
     0.075935144504246    -0.036577161612266     0.036647101375624
    -0.139257000000000     0.179438500000000    -0.083103000000000
     0.012568433163368    -0.005454803962010    -0.000026199694406
2 1
    -0.438365830325968    -0.015957951816728     0.050686651536208
    -0.015975000000000     0.150140000000000     0.056151500000000
     0.050691697541206     0.056161261821596     0.093953183837563
2 2
    14.659988836095643    -3.150577216734949    -2.201201897920412
    -3.152991999999998    14.048252999999992    -1.945534500000000
    -2.202735662714290    -1.942364809634199    14.713141930677780
2 3
    -0.281377390828710    -0.050329910638843     0.126124807138944
    -0.031234500000000    -0.075320500000000    -0.009336000000000
    -0.052706392465259    -0.003213734936870     0.097354409851598
2 4
     0.450588651389565    -0.077316075061170     0.046008143240513
    -0.151297500000000    -0.558264500000000    -0.011674500000000
     0.191219762409242     0.161301503638211     0.152535173743636
2 5
    -0.281394041802886    -0.031212367288112    -0.052721824428414
    -0.050294500000000    -0.075369000000000    -0.003220500000000
     0.126134259328709    -0.009357071987249     0.097374889079386
2 6
     0.450584557374837    -0.151233317440656     0.191196609881009
    -0.077310000000000    -0.558312000000000     0.161322500000000
     0.046018070853968    -0.011657241341874     0.152521402804103
2 7
    -0.752569584320228     1.066502703508117    -0.457277264634316
     1.954095499999999    -1.509458499999999     0.342780500000000
    -1.728566906401245     1.379086698734156     0.206353930482102
2 8
    -0.552278013199931    -0.200691948274121     0.336889226944984
    -0.329958500000000     0.032867000000000     0.222382000000000
    -0.066334314756905     0.031484352355711     0.179424264413694
2 9
     0.097375738877531    -0.078584580137897     0.007370250617516
     0.078553000000000    -0.264996000000000    -0.062243000000000
     0.007350183113157     0.062201461594403     0.052186555643737
2 10
    -0.036505202945512    -0.038377105177522     0.029853082245426
     0.038374000000000    -0.142964000000000    -0.020665000000000
     0.029833573105653     0.020684184413669     0.049621643119555
2 11
    -0.752591162052635    -1.954085563849900    -1.728550216610008
    -1.066545499999999    -1.509399999999999    -1.379087000000000
    -0.457265929330728    -0.342767196817274     0.206324079171522
2 12
    -0.552299740197015     0.329929833571972    -0.066320658927622
     0.200698000000000     0.032909500000000    -0.031502000000000
     0.336902900220227    -0.222421716195426     0.179439840598141
2 13
    -0.193884319084959     0.060782164063902     0.199294364425118
     0.060762500000000     0.146925500000000     0.033156000000000
     0.199325997294166     0.033119437730053    -0.362248328494609
2 14
     0.032709874022838    -0.030918873769992    -0.098957439382646