phonopy:
  version: "2.21.2"
  frequency_unit_conversion_factor: 15.633302
  symmetry_tolerance: 1.00000e-05
  configuration:
    force_constants: "WRITE"
    dim: "2 0 0 0 3 0 0 0 1"
    full_force_constants: ".TRUE."

physical_unit:
  atomic_mass: "AMU"
  length: "angstrom"
  force_constants: "eV/angstrom^2"

space_group:
  type: "P2_1/c"
  number: 14
  Hall_symbol: "-P 2ybc"

supercell_matrix:
- [   2,   0,   0 ]
- [   0,   3,   0 ]
- [   0,   0,   1 ]

primitive_cell:
  lattice:
  - [     7.014275170000000,     0.000000000000000,    -0.045510800000000 ] # a
  - [     0.000000000000000,     5.181749470000000,     0.000000000000000 ] # b
  - [    -1.480949120000000,     0.000000000000000,    13.512849590000000 ] # c
  points:
  - symbol: Sb # 1
    coordinates: [  0.184972580000000,  0.381648890000000,  0.796462790000000 ]
    mass: 121.760000
  - symbol: Sb # 2
    coordinates: [  0.815027420000000,  0.881648890000000,  0.703537210000000 ]
    mass: 121.760000
  - symbol: Sb # 3
    coordinates: [  0.815027420000000,  0.618351110000000,  0.203537210000000 ]
    mass: 121.760000
  - symbol: Sb # 4
    coordinates: [  0.184972580000000,  0.118351110000000,  0.296462790000000 ]
    mass: 121.760000
  - symbol: Sb # 5
    coordinates: [  0.834407880000000,  0.278271690000000,  0.947095630000000 ]
    mass: 121.760000
  - symbol: Sb # 6
    coordinates: [  0.165592120000000,  0.778271690000000,  0.552904370000000 ]
    mass: 121.760000
  - symbol: Sb # 7
    coordinates: [  0.165592120000000,  0.721728310000000,  0.052904370000000 ]
    mass: 121.760000
  - symbol: Sb # 8
    coordinates: [  0.834407880000000,  0.221728310000000,  0.447095630000000 ]
    mass: 121.760000
  - symbol: I  # 9
    coordinates: [  0.505840750000000,  0.292640220000000,  0.619702910000000 ]
    mass: 126.904470
  - symbol: I  # 10
    coordinates: [  0.494159250000000,  0.792640220000000,  0.880297090000000 ]
    mass: 126.904470
  - symbol: I  # 11
    coordinates: [  0.494159250000000,  0.707359780000000,  0.380297090000000 ]
    mass: 126.904470
  - symbol: I  # 12
    coordinates: [  0.505840750000000,  0.207359780000000,  0.119702910000000 ]
    mass: 126.904470
  - symbol: O  # 13
    coordinates: [  0.934160730000000,  0.492577550000000,  0.082185730000000 ]
    mass: 15.999400
  - symbol: O  # 14
    coordinates: [  0.065839270000000,  0.992577550000000,  0.417814270000000 ]
    mass: 15.999400
  - symbol: O  # 15
    coordinates: [  0.065839270000000,  0.507422450000000,  0.917814270000000 ]
    mass: 15.999400
  - symbol: O  # 16
    coordinates: [  0.934160730000000,  0.007422450000000,  0.582185730000000 ]
    mass: 15.999400
  - symbol: O  # 17
    coordinates: [  0.928683930000000,  0.168219100000000,  0.791229370000000 ]
    mass: 15.999400
  - symbol: O  # 18
    coordinates: [  0.071316070000000,  0.668219100000000,  0.708770630000000 ]
    mass: 15.999400
  - symbol: O  # 19
    coordinates: [  0.071316070000000,  0.831780900000000,  0.208770630000000 ]
    mass: 15.999400
  - symbol: O  # 20
    coordinates: [  0.928683930000000,  0.331780900000000,  0.291229370000000 ]
    mass: 15.999400
  - symbol: O  # 21
    coordinates: [  0.000000000000000,  0.500000000000000,  0.500000000000000 ]
    mass: 15.999400
  - symbol: O  # 22
    coordinates: [  0.000000000000000,  0.000000000000000,  0.000000000000000 ]
    mass: 15.999400
  reciprocal_lattice: # without 2pi
  - [     0.142667855514388,     0.000000000000000,     0.015635771986442 ] # a*
  - [     0.000000000000000,     0.192985015155509,     0.000000000000000 ] # b*
  - [     0.000480500296810,     0.000000000000000,     0.074056296551416 ] # c*

unit_cell:
  lattice:
  - [     7.014275170000000,     0.000000000000000,    -0.045510800000000 ] # a
  - [     0.000000000000000,     5.181749470000000,     0.000000000000000 ] # b
  - [    -1.480949120000000,     0.000000000000000,    13.512849590000000 ] # c
  points:
  - symbol: Sb # 1
    coordinates: [  0.184972580000000,  0.381648890000000,  0.796462790000000 ]
    mass: 121.760000
    reduced_to: 1
  - symbol: Sb # 2
    coordinates: [  0.815027420000000,  0.881648890000000,  0.703537210000000 ]
    mass: 121.760000
    reduced_to: 2
  - symbol: Sb # 3
    coordinates: [  0.815027420000000,  0.618351110000000,  0.203537210000000 ]
    mass: 121.760000
    reduced_to: 3
  - symbol: Sb # 4
    coordinates: [  0.184972580000000,  0.118351110000000,  0.296462790000000 ]
    mass: 121.760000
    reduced_to: 4
  - symbol: Sb # 5
    coordinates: [  0.834407880000000,  0.278271690000000,  0.947095630000000 ]
    mass: 121.760000
    reduced_to: 5
  - symbol: Sb # 6
    coordinates: [  0.165592120000000,  0.778271690000000,  0.552904370000000 ]
    mass: 121.760000
    reduced_to: 6
  - symbol: Sb # 7
    coordinates: [  0.165592120000000,  0.721728310000000,  0.052904370000000 ]
    mass: 121.760000
    reduced_to: 7
  - symbol: Sb # 8
    coordinates: [  0.834407880000000,  0.221728310000000,  0.447095630000000 ]
    mass: 121.760000
    reduced_to: 8
  - symbol: I  # 9
    coordinates: [  0.505840750000000,  0.292640220000000,  0.619702910000000 ]
    mass: 126.904470
    reduced_to: 9
  - symbol: I  # 10
    coordinates: [  0.494159250000000,  0.792640220000000,  0.880297090000000 ]
    mass: 126.904470
    reduced_to: 10
  - symbol: I  # 11
    coordinates: [  0.494159250000000,  0.707359780000000,  0.380297090000000 ]
    mass: 126.904470
    reduced_to: 11
  - symbol: I  # 12
    coordinates: [  0.505840750000000,  0.207359780000000,  0.119702910000000 ]
    mass: 126.904470
    reduced_to: 12
  - symbol: O  # 13
    coordinates: [  0.934160730000000,  0.492577550000000,  0.082185730000000 ]
    mass: 15.999400
    reduced_to: 13
  - symbol: O  # 14
    coordinates: [  0.065839270000000,  0.992577550000000,  0.417814270000000 ]
    mass: 15.999400
    reduced_to: 14
  - symbol: O  # 15
    coordinates: [  0.065839270000000,  0.507422450000000,  0.917814270000000 ]
    mass: 15.999400
    reduced_to: 15
  - symbol: O  # 16
    coordinates: [  0.934160730000000,  0.007422450000000,  0.582185730000000 ]
    mass: 15.999400
    reduced_to: 16
  - symbol: O  # 17
    coordinates: [  0.928683930000000,  0.168219100000000,  0.791229370000000 ]
    mass: 15.999400
    reduced_to: 17
  - symbol: O  # 18
    coordinates: [  0.071316070000000,  0.668219100000000,  0.708770630000000 ]
    mass: 15.999400
    reduced_to: 18
  - symbol: O  # 19
    coordinates: [  0.071316070000000,  0.831780900000000,  0.208770630000000 ]
    mass: 15.999400
    reduced_to: 19
  - symbol: O  # 20
    coordinates: [  0.928683930000000,  0.331780900000000,  0.291229370000000 ]
    mass: 15.999400
    reduced_to: 20
  - symbol: O  # 21
    coordinates: [  0.000000000000000,  0.500000000000000,  0.500000000000000 ]
    mass: 15.999400
    reduced_to: 21
  - symbol: O  # 22
    coordinates: [  0.000000000000000,  0.000000000000000,  0.000000000000000 ]
    mass: 15.999400
    reduced_to: 22

supercell:
  lattice:
  - [    14.028550340000001,     0.000000000000000,    -0.091021600000000 ] # a
  - [     0.000000000000000,    15.545248409999999,     0.000000000000000 ] # b
  - [    -1.480949120000000,     0.000000000000000,    13.512849590000000 ] # c
  points:
  - symbol: Sb # 1
    coordinates: [  0.092486290000000,  0.127216296666667,  0.796462790000000 ]
    mass: 121.760000
    reduced_to: 1
  - symbol: Sb # 2
    coordinates: [  0.592486290000000,  0.127216296666667,  0.796462790000000 ]
    mass: 121.760000
    reduced_to: 1
  - symbol: Sb # 3
    coordinates: [  0.092486290000000,  0.460549630000000,  0.796462790000000 ]
    mass: 121.760000
    reduced_to: 1
  - symbol: Sb # 4
    coordinates: [  0.592486290000000,  0.460549630000000,  0.796462790000000 ]
    mass: 121.760000
    reduced_to: 1
  - symbol: Sb # 5
    coordinates: [  0.092486290000000,  0.793882963333333,  0.796462790000000 ]
    mass: 121.760000
    reduced_to: 1
  - symbol: Sb # 6
    coordinates: [  0.592486290000000,  0.793882963333333,  0.796462790000000 ]
    mass: 121.760000
    reduced_to: 1
  - symbol: Sb # 7
    coordinates: [  0.407513710000000,  0.293882963333333,  0.703537210000000 ]
    mass: 121.760000
    reduced_to: 7
  - symbol: Sb # 8
    coordinates: [  0.907513710000000,  0.293882963333333,  0.703537210000000 ]
    mass: 121.760000
    reduced_to: 7
  - symbol: Sb # 9
    coordinates: [  0.407513710000000,  0.627216296666667,  0.703537210000000 ]
    mass: 121.760000
    reduced_to: 7
  - symbol: Sb # 10
    coordinates: [  0.907513710000000,  0.627216296666667,  0.703537210000000 ]
    mass: 121.760000
    reduced_to: 7
  - symbol: Sb # 11
    coordinates: [  0.407513710000000,  0.960549630000000,  0.703537210000000 ]
    mass: 121.760000
    reduced_to: 7
  - symbol: Sb # 12
    coordinates: [  0.907513710000000,  0.960549630000000,  0.703537210000000 ]
    mass: 121.760000
    reduced_to: 7
  - symbol: Sb # 13
    coordinates: [  0.407513710000000,  0.206117036666667,  0.203537210000000 ]
    mass: 121.760000
    reduced_to: 13
  - symbol: Sb # 14
    coordinates: [  0.907513710000000,  0.206117036666667,  0.203537210000000 ]
    mass: 121.760000
    reduced_to: 13
  - symbol: Sb # 15
    coordinates: [  0.407513710000000,  0.539450370000000,  0.203537210000000 ]
    mass: 121.760000
    reduced_to: 13
  - symbol: Sb # 16
    coordinates: [  0.907513710000000,  0.539450370000000,  0.203537210000000 ]
    mass: 121.760000
    reduced_to: 13
  - symbol: Sb # 17
    coordinates: [  0.407513710000000,  0.872783703333333,  0.203537210000000 ]
    mass: 121.760000
    reduced_to: 13
  - symbol: Sb # 18
    coordinates: [  0.907513710000000,  0.872783703333333,  0.203537210000000 ]
    mass: 121.760000
    reduced_to: 13
  - symbol: Sb # 19
    coordinates: [  0.092486290000000,  0.039450370000000,  0.296462790000000 ]
    mass: 121.760000
    reduced_to: 19
  - symbol: Sb # 20
    coordinates: [  0.592486290000000,  0.039450370000000,  0.296462790000000 ]
    mass: 121.760000
    reduced_to: 19
  - symbol: Sb # 21
    coordinates: [  0.092486290000000,  0.372783703333333,  0.296462790000000 ]
    mass: 121.760000
    reduced_to: 19
  - symbol: Sb # 22
    coordinates: [  0.592486290000000,  0.372783703333333,  0.296462790000000 ]
    mass: 121.760000
    reduced_to: 19
  - symbol: Sb # 23
    coordinates: [  0.092486290000000,  0.706117036666667,  0.296462790000000 ]
    mass: 121.760000
    reduced_to: 19
  - symbol: Sb # 24
    coordinates: [  0.592486290000000,  0.706117036666667,  0.296462790000000 ]
    mass: 121.760000
    reduced_to: 19
  - symbol: Sb # 25
    coordinates: [  0.417203940000000,  0.092757230000000,  0.947095630000000 ]
    mass: 121.760000
    reduced_to: 25
  - symbol: Sb # 26
    coordinates: [  0.917203940000000,  0.092757230000000,  0.947095630000000 ]
    mass: 121.760000
    reduced_to: 25
  - symbol: Sb # 27
    coordinates: [  0.417203940000000,  0.426090563333333,  0.947095630000000 ]
    mass: 121.760000
    reduced_to: 25
  - symbol: Sb # 28
    coordinates: [  0.917203940000000,  0.426090563333333,  0.947095630000000 ]
    mass: 121.760000
    reduced_to: 25
  - symbol: Sb # 29
    coordinates: [  0.417203940000000,  0.759423896666667,  0.947095630000000 ]
    mass: 121.760000
    reduced_to: 25
  - symbol: Sb # 30
    coordinates: [  0.917203940000000,  0.759423896666667,  0.947095630000000 ]
    mass: 121.760000
    reduced_to: 25
  - symbol: Sb # 31
    coordinates: [  0.082796060000000,  0.259423896666667,  0.552904370000000 ]
    mass: 121.760000
    reduced_to: 31
  - symbol: Sb # 32
    coordinates: [  0.582796060000000,  0.259423896666667,  0.552904370000000 ]
    mass: 121.760000
    reduced_to: 31
  - symbol: Sb # 33
    coordinates: [  0.082796060000000,  0.592757230000000,  0.552904370000000 ]
    mass: 121.760000
    reduced_to: 31
  - symbol: Sb # 34
    coordinates: [  0.582796060000000,  0.592757230000000,  0.552904370000000 ]
    mass: 121.760000
    reduced_to: 31
  - symbol: Sb # 35
    coordinates: [  0.082796060000000,  0.926090563333333,  0.552904370000000 ]
    mass: 121.760000
    reduced_to: 31
  - symbol: Sb # 36
    coordinates: [  0.582796060000000,  0.926090563333333,  0.552904370000000 ]
    mass: 121.760000
    reduced_to: 31
  - symbol: Sb # 37
    coordinates: [  0.082796060000000,  0.240576103333333,  0.052904370000000 ]
    mass: 121.760000
    reduced_to: 37
  - symbol: Sb # 38
    coordinates: [  0.582796060000000,  0.240576103333333,  0.052904370000000 ]
    mass: 121.760000
    reduced_to: 37
  - symbol: Sb # 39
    coordinates: [  0.082796060000000,  0.573909436666667,  0.052904370000000 ]
    mass: 121.760000
    reduced_to: 37
  - symbol: Sb # 40
    coordinates: [  0.582796060000000,  0.573909436666667,  0.052904370000000 ]
    mass: 121.760000
    reduced_to: 37
  - symbol: Sb # 41
    coordinates: [  0.082796060000000,  0.907242770000000,  0.052904370000000 ]
    mass: 121.760000
    reduced_to: 37
  - symbol: Sb # 42
    coordinates: [  0.582796060000000,  0.907242770000000,  0.052904370000000 ]
    mass: 121.760000
    reduced_to: 37
  - symbol: Sb # 43
    coordinates: [  0.417203940000000,  0.073909436666667,  0.447095630000000 ]
    mass: 121.760000
    reduced_to: 43
  - symbol: Sb # 44
    coordinates: [  0.917203940000000,  0.073909436666667,  0.447095630000000 ]
    mass: 121.760000
    reduced_to: 43
  - symbol: Sb # 45
    coordinates: [  0.417203940000000,  0.407242770000000,  0.447095630000000 ]
    mass: 121.760000
    reduced_to: 43
  - symbol: Sb # 46
    coordinates: [  0.917203940000000,  0.407242770000000,  0.447095630000000 ]
    mass: 121.760000
    reduced_to: 43
  - symbol: Sb # 47
    coordinates: [  0.417203940000000,  0.740576103333333,  0.447095630000000 ]
    mass: 121.760000
    reduced_to: 43
  - symbol: Sb # 48
    coordinates: [  0.917203940000000,  0.740576103333333,  0.447095630000000 ]
    mass: 121.760000
    reduced_to: 43
  - symbol: I  # 49
    coordinates: [  0.252920375000000,  0.097546740000000,  0.619702910000000 ]
    mass: 126.904470
    reduced_to: 49
  - symbol: I  # 50
    coordinates: [  0.752920375000000,  0.097546740000000,  0.619702910000000 ]
    mass: 126.904470
    reduced_to: 49
  - symbol: I  # 51
    coordinates: [  0.252920375000000,  0.430880073333333,  0.619702910000000 ]
    mass: 126.904470
    reduced_to: 49
  - symbol: I  # 52
    coordinates: [  0.752920375000000,  0.430880073333333,  0.619702910000000 ]
    mass: 126.904470
    reduced_to: 49
  - symbol: I  # 53
    coordinates: [  0.252920375000000,  0.764213406666667,  0.619702910000000 ]
    mass: 126.904470
    reduced_to: 49
  - symbol: I  # 54
    coordinates: [  0.752920375000000,  0.764213406666667,  0.619702910000000 ]
    mass: 126.904470
    reduced_to: 49
  - symbol: I  # 55
    coordinates: [  0.247079625000000,  0.264213406666667,  0.880297090000000 ]
    mass: 126.904470
    reduced_to: 55
  - symbol: I  # 56
    coordinates: [  0.747079625000000,  0.264213406666667,  0.880297090000000 ]
    mass: 126.904470
    reduced_to: 55
  - symbol: I  # 57
    coordinates: [  0.247079625000000,  0.597546740000000,  0.880297090000000 ]
    mass: 126.904470
    reduced_to: 55
  - symbol: I  # 58
    coordinates: [  0.747079625000000,  0.597546740000000,  0.880297090000000 ]
    mass: 126.904470
    reduced_to: 55
  - symbol: I  # 59
    coordinates: [  0.247079625000000,  0.930880073333333,  0.880297090000000 ]
    mass: 126.904470
    reduced_to: 55
  - symbol: I  # 60
    coordinates: [  0.747079625000000,  0.930880073333333,  0.880297090000000 ]
    mass: 126.904470
    reduced_to: 55
  - symbol: I  # 61
    coordinates: [  0.247079625000000,  0.235786593333333,  0.380297090000000 ]
    mass: 126.904470
    reduced_to: 61
  - symbol: I  # 62
    coordinates: [  0.747079625000000,  0.235786593333333,  0.380297090000000 ]
    mass: 126.904470
    reduced_to: 61
  - symbol: I  # 63
    coordinates: [  0.247079625000000,  0.569119926666667,  0.380297090000000 ]
    mass: 126.904470
    reduced_to: 61
  - symbol: I  # 64
    coordinates: [  0.747079625000000,  0.569119926666667,  0.380297090000000 ]
    mass: 126.904470
    reduced_to: 61
  - symbol: I  # 65
    coordinates: [  0.247079625000000,  0.902453260000000,  0.380297090000000 ]
    mass: 126.904470
    reduced_to: 61
  - symbol: I  # 66
    coordinates: [  0.747079625000000,  0.902453260000000,  0.380297090000000 ]
    mass: 126.904470
    reduced_to: 61
  - symbol: I  # 67
    coordinates: [  0.252920375000000,  0.069119926666667,  0.119702910000000 ]
    mass: 126.904470
    reduced_to: 67
  - symbol: I  # 68
    coordinates: [  0.752920375000000,  0.069119926666667,  0.119702910000000 ]
    mass: 126.904470
    reduced_to: 67
  - symbol: I  # 69
    coordinates: [  0.252920375000000,  0.402453260000000,  0.119702910000000 ]
    mass: 126.904470
    reduced_to: 67
  - symbol: I  # 70
    coordinates: [  0.752920375000000,  0.402453260000000,  0.119702910000000 ]
    mass: 126.904470
    reduced_to: 67
  - symbol: I  # 71
    coordinates: [  0.252920375000000,  0.735786593333333,  0.119702910000000 ]
    mass: 126.904470
    reduced_to: 67
  - symbol: I  # 72
    coordinates: [  0.752920375000000,  0.735786593333333,  0.119702910000000 ]
    mass: 126.904470
    reduced_to: 67
  - symbol: O  # 73
    coordinates: [  0.467080365000000,  0.164192516666667,  0.082185730000000 ]
    mass: 15.999400
    reduced_to: 73
  - symbol: O  # 74
    coordinates: [  0.967080365000000,  0.164192516666667,  0.082185730000000 ]
    mass: 15.999400
    reduced_to: 73
  - symbol: O  # 75
    coordinates: [  0.467080365000000,  0.497525850000000,  0.082185730000000 ]
    mass: 15.999400
    reduced_to: 73
  - symbol: O  # 76
    coordinates: [  0.967080365000000,  0.497525850000000,  0.082185730000000 ]
    mass: 15.999400
    reduced_to: 73
  - symbol: O  # 77
    coordinates: [  0.467080365000000,  0.830859183333333,  0.082185730000000 ]
    mass: 15.999400
    reduced_to: 73
  - symbol: O  # 78
    coordinates: [  0.967080365000000,  0.830859183333333,  0.082185730000000 ]
    mass: 15.999400
    reduced_to: 73
  - symbol: O  # 79
    coordinates: [  0.032919635000000,  0.330859183333333,  0.417814270000000 ]
    mass: 15.999400
    reduced_to: 79
  - symbol: O  # 80
    coordinates: [  0.532919635000000,  0.330859183333333,  0.417814270000000 ]
    mass: 15.999400
    reduced_to: 79
  - symbol: O  # 81
    coordinates: [  0.032919635000000,  0.664192516666667,  0.417814270000000 ]
    mass: 15.999400
    reduced_to: 79
  - symbol: O  # 82
    coordinates: [  0.532919635000000,  0.664192516666667,  0.417814270000000 ]
    mass: 15.999400
    reduced_to: 79
  - symbol: O  # 83
    coordinates: [  0.032919635000000,  0.997525850000000,  0.417814270000000 ]
    mass: 15.999400
    reduced_to: 79
  - symbol: O  # 84
    coordinates: [  0.532919635000000,  0.997525850000000,  0.417814270000000 ]
    mass: 15.999400
    reduced_to: 79
  - symbol: O  # 85
    coordinates: [  0.032919635000000,  0.169140816666667,  0.917814270000000 ]
    mass: 15.999400
    reduced_to: 85
  - symbol: O  # 86
    coordinates: [  0.532919635000000,  0.169140816666667,  0.917814270000000 ]
    mass: 15.999400
    reduced_to: 85
  - symbol: O  # 87
    coordinates: [  0.032919635000000,  0.502474150000000,  0.917814270000000 ]
    mass: 15.999400
    reduced_to: 85
  - symbol: O  # 88
    coordinates: [  0.532919635000000,  0.502474150000000,  0.917814270000000 ]
    mass: 15.999400
    reduced_to: 85
  - symbol: O  # 89
    coordinates: [  0.032919635000000,  0.835807483333333,  0.917814270000000 ]
    mass: 15.999400
    reduced_to: 85
  - symbol: O  # 90
    coordinates: [  0.532919635000000,  0.835807483333333,  0.917814270000000 ]
    mass: 15.999400
    reduced_to: 85
  - symbol: O  # 91
    coordinates: [  0.467080365000000,  0.002474150000000,  0.582185730000000 ]
    mass: 15.999400
    reduced_to: 91
  - symbol: O  # 92
    coordinates: [  0.967080365000000,  0.002474150000000,  0.582185730000000 ]
    mass: 15.999400
    reduced_to: 91
  - symbol: O  # 93
    coordinates: [  0.467080365000000,  0.335807483333333,  0.582185730000000 ]
    mass: 15.999400
    reduced_to: 91
  - symbol: O  # 94
    coordinates: [  0.967080365000000,  0.335807483333333,  0.582185730000000 ]
    mass: 15.999400
    reduced_to: 91
  - symbol: O  # 95
    coordinates: [  0.467080365000000,  0.669140816666667,  0.582185730000000 ]
    mass: 15.999400
    reduced_to: 91
  - symbol: O  # 96
    coordinates: [  0.967080365000000,  0.669140816666667,  0.582185730000000 ]
    mass: 15.999400
    reduced_to: 91
  - symbol: O  # 97
    coordinates: [  0.464341965000000,  0.056073033333333,  0.791229370000000 ]
    mass: 15.999400
    reduced_to: 97
  - symbol: O  # 98
    coordinates: [  0.964341965000000,  0.056073033333333,  0.791229370000000 ]
    mass: 15.999400
    reduced_to: 97
  - symbol: O  # 99
    coordinates: [  0.464341965000000,  0.389406366666667,  0.791229370000000 ]
    mass: 15.999400
    reduced_to: 97
  - symbol: O  # 100
    coordinates: [  0.964341965000000,  0.389406366666667,  0.791229370000000 ]
    mass: 15.999400
    reduced_to: 97
  - symbol: O  # 101
    coordinates: [  0.464341965000000,  0.722739700000000,  0.791229370000000 ]
    mass: 15.999400
    reduced_to: 97
  - symbol: O  # 102
    coordinates: [  0.964341965000000,  0.722739700000000,  0.791229370000000 ]
    mass: 15.999400
    reduced_to: 97
  - symbol: O  # 103
    coordinates: [  0.035658035000000,  0.222739700000000,  0.708770630000000 ]
    mass: 15.999400
    reduced_to: 103
  - symbol: O  # 104
    coordinates: [  0.535658035000000,  0.222739700000000,  0.708770630000000 ]
    mass: 15.999400
    reduced_to: 103
  - symbol: O  # 105
    coordinates: [  0.035658035000000,  0.556073033333333,  0.708770630000000 ]
    mass: 15.999400
    reduced_to: 103
  - symbol: O  # 106
    coordinates: [  0.535658035000000,  0.556073033333333,  0.708770630000000 ]
    mass: 15.999400
    reduced_to: 103
  - symbol: O  # 107
    coordinates: [  0.035658035000000,  0.889406366666667,  0.708770630000000 ]
    mass: 15.999400
    reduced_to: 103
  - symbol: O  # 108
    coordinates: [  0.535658035000000,  0.889406366666667,  0.708770630000000 ]
    mass: 15.999400
    reduced_to: 103
  - symbol: O  # 109
    coordinates: [  0.035658035000000,  0.277260300000000,  0.208770630000000 ]
    mass: 15.999400
    reduced_to: 109
  - symbol: O  # 110
    coordinates: [  0.535658035000000,  0.277260300000000,  0.208770630000000 ]
    mass: 15.999400
    reduced_to: 109
  - symbol: O  # 111
    coordinates: [  0.035658035000000,  0.610593633333333,  0.208770630000000 ]
    mass: 15.999400
    reduced_to: 109
  - symbol: O  # 112
    coordinates: [  0.535658035000000,  0.610593633333333,  0.208770630000000 ]
    mass: 15.999400
    reduced_to: 109
  - symbol: O  # 113
    coordinates: [  0.035658035000000,  0.943926966666667,  0.208770630000000 ]
    mass: 15.999400
    reduced_to: 109
  - symbol: O  # 114
    coordinates: [  0.535658035000000,  0.943926966666667,  0.208770630000000 ]
    mass: 15.999400
    reduced_to: 109
  - symbol: O  # 115
    coordinates: [  0.464341965000000,  0.110593633333333,  0.291229370000000 ]
    mass: 15.999400
    reduced_to: 115
  - symbol: O  # 116
    coordinates: [  0.964341965000000,  0.110593633333333,  0.291229370000000 ]
    mass: 15.999400
    reduced_to: 115
  - symbol: O  # 117
    coordinates: [  0.464341965000000,  0.443926966666667,  0.291229370000000 ]
    mass: 15.999400
    reduced_to: 115
  - symbol: O  # 118
    coordinates: [  0.964341965000000,  0.443926966666667,  0.291229370000000 ]
    mass: 15.999400
    reduced_to: 115
  - symbol: O  # 119
    coordinates: [  0.464341965000000,  0.777260300000000,  0.291229370000000 ]
    mass: 15.999400
    reduced_to: 115
  - symbol: O  # 120
    coordinates: [  0.964341965000000,  0.777260300000000,  0.291229370000000 ]
    mass: 15.999400
    reduced_to: 115
  - symbol: O  # 121
    coordinates: [  0.000000000000000,  0.166666666666667,  0.500000000000000 ]
    mass: 15.999400
    reduced_to: 121
  - symbol: O  # 122
    coordinates: [  0.500000000000000,  0.166666666666667,  0.500000000000000 ]
    mass: 15.999400
    reduced_to: 121
  - symbol: O  # 123
    coordinates: [  0.000000000000000,  0.500000000000000,  0.500000000000000 ]
    mass: 15.999400
    reduced_to: 121
  - symbol: O  # 124
    coordinates: [  0.500000000000000,  0.500000000000000,  0.500000000000000 ]
    mass: 15.999400
    reduced_to: 121
  - symbol: O  # 125
    coordinates: [  0.000000000000000,  0.833333333333333,  0.500000000000000 ]
    mass: 15.999400
    reduced_to: 121
  - symbol: O  # 126
    coordinates: [  0.500000000000000,  0.833333333333333,  0.500000000000000 ]
    mass: 15.999400
    reduced_to: 121
  - symbol: O  # 127
    coordinates: [  0.000000000000000,  0.000000000000000,  0.000000000000000 ]
    mass: 15.999400
    reduced_to: 127
  - symbol: O  # 128
    coordinates: [  0.500000000000000,  0.000000000000000,  0.000000000000000 ]
    mass: 15.999400
    reduced_to: 127
  - symbol: O  # 129
    coordinates: [  0.000000000000000,  0.333333333333333,  0.000000000000000 ]
    mass: 15.999400
    reduced_to: 127
  - symbol: O  # 130
    coordinates: [  0.500000000000000,  0.333333333333333,  0.000000000000000 ]
    mass: 15.999400
    reduced_to: 127
  - symbol: O  # 131
    coordinates: [  0.000000000000000,  0.666666666666667,  0.000000000000000 ]
    mass: 15.999400
    reduced_to: 127
  - symbol: O  # 132
    coordinates: [  0.500000000000000,  0.666666666666667,  0.000000000000000 ]
    mass: 15.999400
    reduced_to: 127
