# epsilon and Z* of atoms 1 9 17
   6.99080375    0.00000000    0.00000000    0.00000000    7.70509766    0.00000000    0.00000000    0.00000000    7.03236716 
  -3.50973313    1.28411602   -0.05950862    1.58429008   -3.25355395    1.52658945   -0.03731782    1.37447756   -2.81131762 
  -2.55942699   -0.03653828   -0.83621630   -0.12159678   -3.49350055    1.90736569   -0.75804141    1.89731201   -3.30515200 
   6.06916013    0.27797886   -1.18721678    0.05060460    6.74705450    0.02526769   -0.86292462   -0.05585078    6.11646962 
