natom:   96
displacements:
- atom:    1
  displacement:
    [   0.0100000000000000,  0.0000000000000000,  0.0000000000000000 ]
- atom:    1
  displacement:
    [  -0.0100000000000000,  0.0000000000000000,  0.0000000000000000 ]
- atom:    1
  displacement:
    [   0.0000000000000000,  0.0100000000000000,  0.0000000000000000 ]
- atom:    1
  displacement:
    [   0.0000000000000000, -0.0100000000000000,  0.0000000000000000 ]
- atom:    1
  displacement:
    [   0.0000000000000000,  0.0000000000000000,  0.0100000000000000 ]
- atom:    1
  displacement:
    [   0.0000000000000000,  0.0000000000000000, -0.0100000000000000 ]
- atom:   33
  displacement:
    [   0.0100000000000000,  0.0000000000000000,  0.0000000000000000 ]
- atom:   33
  displacement:
    [  -0.0100000000000000,  0.0000000000000000,  0.0000000000000000 ]
- atom:   33
  displacement:
    [   0.0000000000000000,  0.0100000000000000,  0.0000000000000000 ]
- atom:   33
  displacement:
    [   0.0000000000000000, -0.0100000000000000,  0.0000000000000000 ]
- atom:   33
  displacement:
    [   0.0000000000000000,  0.0000000000000000,  0.0100000000000000 ]
- atom:   33
  displacement:
    [   0.0000000000000000,  0.0000000000000000, -0.0100000000000000 ]
- atom:   65
  displacement:
    [   0.0100000000000000,  0.0000000000000000,  0.0000000000000000 ]
- atom:   65
  displacement:
    [  -0.0100000000000000,  0.0000000000000000,  0.0000000000000000 ]
- atom:   65
  displacement:
    [   0.0000000000000000,  0.0100000000000000,  0.0000000000000000 ]
- atom:   65
  displacement:
    [   0.0000000000000000, -0.0100000000000000,  0.0000000000000000 ]
- atom:   65
  displacement:
    [   0.0000000000000000,  0.0000000000000000,  0.0100000000000000 ]
- atom:   65
  displacement:
    [   0.0000000000000000,  0.0000000000000000, -0.0100000000000000 ]
lattice:
- [    10.2582687400000001,     0.0000000000000000,     0.0000000000000000 ] # a
- [     0.0000000000000000,     9.1832581300000005,     0.0000000000000000 ] # b
- [     0.0000000000000000,     0.0000000000000000,    10.8978184200000001 ] # c
atoms:
- symbol: O  # 1
  position: [  0.2324411350000000,  0.2699833900000000,  0.1954754750000000 ]
  mass: 15.999400
- symbol: O  # 2
  position: [  0.7324411350000000,  0.2699833900000000,  0.1954754750000000 ]
  mass: 15.999400
- symbol: O  # 3
  position: [  0.2324411350000000,  0.2699833900000000,  0.6954754750000001 ]
  mass: 15.999400
- symbol: O  # 4
  position: [  0.7324411350000000,  0.2699833900000000,  0.6954754750000001 ]
  mass: 15.999400
- symbol: O  # 5
  position: [  0.4824411350000000,  0.2300166100000000,  0.3045245250000000 ]
  mass: 15.999400
- symbol: O  # 6
  position: [  0.9824411350000000,  0.2300166100000000,  0.3045245250000000 ]
  mass: 15.999400
- symbol: O  # 7
  position: [  0.4824411350000000,  0.2300166100000000,  0.8045245249999999 ]
  mass: 15.999400
- symbol: O  # 8
  position: [  0.9824411350000000,  0.2300166100000000,  0.8045245249999999 ]
  mass: 15.999400
- symbol: O  # 9
  position: [  0.0175588650000000,  0.7300166100000000,  0.4454754750000000 ]
  mass: 15.999400
- symbol: O  # 10
  position: [  0.5175588650000000,  0.7300166100000000,  0.4454754750000000 ]
  mass: 15.999400
- symbol: O  # 11
  position: [  0.0175588650000000,  0.7300166100000000,  0.9454754750000001 ]
  mass: 15.999400
- symbol: O  # 12
  position: [  0.5175588650000000,  0.7300166100000000,  0.9454754750000001 ]
  mass: 15.999400
- symbol: O  # 13
  position: [  0.2675588650000000,  0.7699833900000000,  0.0545245250000000 ]
  mass: 15.999400
- symbol: O  # 14
  position: [  0.7675588650000000,  0.7699833900000000,  0.0545245250000000 ]
  mass: 15.999400
- symbol: O  # 15
  position: [  0.2675588650000000,  0.7699833900000000,  0.5545245250000000 ]
  mass: 15.999400
- symbol: O  # 16
  position: [  0.7675588650000000,  0.7699833900000000,  0.5545245250000000 ]
  mass: 15.999400
- symbol: O  # 17
  position: [  0.2675588650000000,  0.7300166100000000,  0.3045245250000000 ]
  mass: 15.999400
- symbol: O  # 18
  position: [  0.7675588650000000,  0.7300166100000000,  0.3045245250000000 ]
  mass: 15.999400
- symbol: O  # 19
  position: [  0.2675588650000000,  0.7300166100000000,  0.8045245249999999 ]
  mass: 15.999400
- symbol: O  # 20
  position: [  0.7675588650000000,  0.7300166100000000,  0.8045245249999999 ]
  mass: 15.999400
- symbol: O  # 21
  position: [  0.0175588650000000,  0.7699833900000000,  0.1954754750000000 ]
  mass: 15.999400
- symbol: O  # 22
  position: [  0.5175588650000000,  0.7699833900000000,  0.1954754750000000 ]
  mass: 15.999400
- symbol: O  # 23
  position: [  0.0175588650000000,  0.7699833900000000,  0.6954754750000001 ]
  mass: 15.999400
- symbol: O  # 24
  position: [  0.5175588650000000,  0.7699833900000000,  0.6954754750000001 ]
  mass: 15.999400
- symbol: O  # 25
  position: [  0.4824411350000000,  0.2699833900000000,  0.0545245250000000 ]
  mass: 15.999400
- symbol: O  # 26
  position: [  0.9824411350000000,  0.2699833900000000,  0.0545245250000000 ]
  mass: 15.999400
- symbol: O  # 27
  position: [  0.4824411350000000,  0.2699833900000000,  0.5545245250000000 ]
  mass: 15.999400
- symbol: O  # 28
  position: [  0.9824411350000000,  0.2699833900000000,  0.5545245250000000 ]
  mass: 15.999400
- symbol: O  # 29
  position: [  0.2324411350000000,  0.2300166100000000,  0.4454754750000000 ]
  mass: 15.999400
- symbol: O  # 30
  position: [  0.7324411350000000,  0.2300166100000000,  0.4454754750000000 ]
  mass: 15.999400
- symbol: O  # 31
  position: [  0.2324411350000000,  0.2300166100000000,  0.9454754750000001 ]
  mass: 15.999400
- symbol: O  # 32
  position: [  0.7324411350000000,  0.2300166100000000,  0.9454754750000001 ]
  mass: 15.999400
- symbol: O  # 33
  position: [  0.4077289200000000,  0.0103635000000000,  0.4257196250000000 ]
  mass: 15.999400
- symbol: O  # 34
  position: [  0.9077289200000001,  0.0103635000000000,  0.4257196250000000 ]
  mass: 15.999400
- symbol: O  # 35
  position: [  0.4077289200000000,  0.0103635000000000,  0.9257196249999999 ]
  mass: 15.999400
- symbol: O  # 36
  position: [  0.9077289200000001,  0.0103635000000000,  0.9257196249999999 ]
  mass: 15.999400
- symbol: O  # 37
  position: [  0.1577289200000000,  0.4896365000000000,  0.0742803750000000 ]
  mass: 15.999400
- symbol: O  # 38
  position: [  0.6577289200000001,  0.4896365000000000,  0.0742803750000000 ]
  mass: 15.999400
- symbol: O  # 39
  position: [  0.1577289200000000,  0.4896365000000000,  0.5742803750000000 ]
  mass: 15.999400
- symbol: O  # 40
  position: [  0.6577289200000001,  0.4896365000000000,  0.5742803750000000 ]
  mass: 15.999400
- symbol: O  # 41
  position: [  0.3422710800000000,  0.9896365000000000,  0.1757196250000000 ]
  mass: 15.999400
- symbol: O  # 42
  position: [  0.8422710799999999,  0.9896365000000000,  0.1757196250000000 ]
  mass: 15.999400
- symbol: O  # 43
  position: [  0.3422710800000000,  0.9896365000000000,  0.6757196249999999 ]
  mass: 15.999400
- symbol: O  # 44
  position: [  0.8422710799999999,  0.9896365000000000,  0.6757196249999999 ]
  mass: 15.999400
- symbol: O  # 45
  position: [  0.0922710800000000,  0.5103635000000000,  0.3242803750000000 ]
  mass: 15.999400
- symbol: O  # 46
  position: [  0.5922710799999999,  0.5103635000000000,  0.3242803750000000 ]
  mass: 15.999400
- symbol: O  # 47
  position: [  0.0922710800000000,  0.5103635000000000,  0.8242803750000001 ]
  mass: 15.999400
- symbol: O  # 48
  position: [  0.5922710799999999,  0.5103635000000000,  0.8242803750000001 ]
  mass: 15.999400
- symbol: O  # 49
  position: [  0.0922710800000000,  0.9896365000000000,  0.0742803750000000 ]
  mass: 15.999400
- symbol: O  # 50
  position: [  0.5922710799999999,  0.9896365000000000,  0.0742803750000000 ]
  mass: 15.999400
- symbol: O  # 51
  position: [  0.0922710800000000,  0.9896365000000000,  0.5742803750000000 ]
  mass: 15.999400
- symbol: O  # 52
  position: [  0.5922710799999999,  0.9896365000000000,  0.5742803750000000 ]
  mass: 15.999400
- symbol: O  # 53
  position: [  0.3422710800000000,  0.5103635000000000,  0.4257196250000000 ]
  mass: 15.999400
- symbol: O  # 54
  position: [  0.8422710799999999,  0.5103635000000000,  0.4257196250000000 ]
  mass: 15.999400
- symbol: O  # 55
  position: [  0.3422710800000000,  0.5103635000000000,  0.9257196249999999 ]
  mass: 15.999400
- symbol: O  # 56
  position: [  0.8422710799999999,  0.5103635000000000,  0.9257196249999999 ]
  mass: 15.999400
- symbol: O  # 57
  position: [  0.1577289200000000,  0.0103635000000000,  0.3242803750000000 ]
  mass: 15.999400
- symbol: O  # 58
  position: [  0.6577289200000001,  0.0103635000000000,  0.3242803750000000 ]
  mass: 15.999400
- symbol: O  # 59
  position: [  0.1577289200000000,  0.0103635000000000,  0.8242803750000001 ]
  mass: 15.999400
- symbol: O  # 60
  position: [  0.6577289200000001,  0.0103635000000000,  0.8242803750000001 ]
  mass: 15.999400
- symbol: O  # 61
  position: [  0.4077289200000000,  0.4896365000000000,  0.1757196250000000 ]
  mass: 15.999400
- symbol: O  # 62
  position: [  0.9077289200000001,  0.4896365000000000,  0.1757196250000000 ]
  mass: 15.999400
- symbol: O  # 63
  position: [  0.4077289200000000,  0.4896365000000000,  0.6757196249999999 ]
  mass: 15.999400
- symbol: O  # 64
  position: [  0.9077289200000001,  0.4896365000000000,  0.6757196249999999 ]
  mass: 15.999400
- symbol: Ti # 65
  position: [  0.0691916150000000,  0.3710659700000000,  0.2021641000000000 ]
  mass: 47.867000
- symbol: Ti # 66
  position: [  0.5691916150000000,  0.3710659700000000,  0.2021641000000000 ]
  mass: 47.867000
- symbol: Ti # 67
  position: [  0.0691916150000000,  0.3710659700000000,  0.7021641000000001 ]
  mass: 47.867000
- symbol: Ti # 68
  position: [  0.5691916150000000,  0.3710659700000000,  0.7021641000000001 ]
  mass: 47.867000
- symbol: Ti # 69
  position: [  0.3191916150000000,  0.1289340300000000,  0.2978359000000000 ]
  mass: 47.867000
- symbol: Ti # 70
  position: [  0.8191916150000000,  0.1289340300000000,  0.2978359000000000 ]
  mass: 47.867000
- symbol: Ti # 71
  position: [  0.3191916150000000,  0.1289340300000000,  0.7978358999999999 ]
  mass: 47.867000
- symbol: Ti # 72
  position: [  0.8191916150000000,  0.1289340300000000,  0.7978358999999999 ]
  mass: 47.867000
- symbol: Ti # 73
  position: [  0.1808083850000000,  0.6289340300000000,  0.4521641000000000 ]
  mass: 47.867000
- symbol: Ti # 74
  position: [  0.6808083850000000,  0.6289340300000000,  0.4521641000000000 ]
  mass: 47.867000
- symbol: Ti # 75
  position: [  0.1808083850000000,  0.6289340300000000,  0.9521641000000001 ]
  mass: 47.867000
- symbol: Ti # 76
  position: [  0.6808083850000000,  0.6289340300000000,  0.9521641000000001 ]
  mass: 47.867000
- symbol: Ti # 77
  position: [  0.4308083850000000,  0.8710659700000000,  0.0478359000000000 ]
  mass: 47.867000
- symbol: Ti # 78
  position: [  0.9308083850000000,  0.8710659700000000,  0.0478359000000000 ]
  mass: 47.867000
- symbol: Ti # 79
  position: [  0.4308083850000000,  0.8710659700000000,  0.5478359000000000 ]
  mass: 47.867000
- symbol: Ti # 80
  position: [  0.9308083850000000,  0.8710659700000000,  0.5478359000000000 ]
  mass: 47.867000
- symbol: Ti # 81
  position: [  0.4308083850000000,  0.6289340300000000,  0.2978359000000000 ]
  mass: 47.867000
- symbol: Ti # 82
  position: [  0.9308083850000000,  0.6289340300000000,  0.2978359000000000 ]
  mass: 47.867000
- symbol: Ti # 83
  position: [  0.4308083850000000,  0.6289340300000000,  0.7978358999999999 ]
  mass: 47.867000
- symbol: Ti # 84
  position: [  0.9308083850000000,  0.6289340300000000,  0.7978358999999999 ]
  mass: 47.867000
- symbol: Ti # 85
  position: [  0.1808083850000000,  0.8710659700000000,  0.2021641000000000 ]
  mass: 47.867000
- symbol: Ti # 86
  position: [  0.6808083850000000,  0.8710659700000000,  0.2021641000000000 ]
  mass: 47.867000
- symbol: Ti # 87
  position: [  0.1808083850000000,  0.8710659700000000,  0.7021641000000001 ]
  mass: 47.867000
- symbol: Ti # 88
  position: [  0.6808083850000000,  0.8710659700000000,  0.7021641000000001 ]
  mass: 47.867000
- symbol: Ti # 89
  position: [  0.3191916150000000,  0.3710659700000000,  0.0478359000000000 ]
  mass: 47.867000
- symbol: Ti # 90
  position: [  0.8191916150000000,  0.3710659700000000,  0.0478359000000000 ]
  mass: 47.867000
- symbol: Ti # 91
  position: [  0.3191916150000000,  0.3710659700000000,  0.5478359000000000 ]
  mass: 47.867000
- symbol: Ti # 92
  position: [  0.8191916150000000,  0.3710659700000000,  0.5478359000000000 ]
  mass: 47.867000
- symbol: Ti # 93
  position: [  0.0691916150000000,  0.1289340300000000,  0.4521641000000000 ]
  mass: 47.867000
- symbol: Ti # 94
  position: [  0.5691916150000000,  0.1289340300000000,  0.4521641000000000 ]
  mass: 47.867000
- symbol: Ti # 95
  position: [  0.0691916150000000,  0.1289340300000000,  0.9521641000000001 ]
  mass: 47.867000
- symbol: Ti # 96
  position: [  0.5691916150000000,  0.1289340300000000,  0.9521641000000001 ]
  mass: 47.867000