  96   96
1 1
    13.485314499999992    -5.403384499999998     0.555789500000000
    -5.402269500000001    12.159992500000001    -4.971771000000000
     0.555297000000000    -4.971858500000001    10.336544000000002
1 2
    -0.625291500000000     0.110162500000000     0.015586500000000
     0.110154000000000     0.087717500000000    -0.086122500000000
     0.015563500000000    -0.086106500000000     0.163640000000000
1 3
     0.118618500000000    -0.068242500000000     0.006050000000000
    -0.068287500000000     0.057357500000000     0.097297000000000
     0.006043500000000     0.097303000000000    -0.440940000000000
1 4
    -0.104468000000000     0.018843000000000     0.011578500000000
     0.018874500000000     0.006060500000000     0.026807500000000
     0.011558500000000     0.026794000000000    -0.095582500000000
1 5
    -1.730651999999999    -0.211739500000000    -0.436759000000000
     1.243947500000000     0.727912500000000    -0.017926000000000
    -1.334078000000000    -0.441005500000000     0.070419000000000
1 6
    -1.730682499999999    -1.244096999999999     1.334188999999999
     0.211777500000000     0.727897500000000    -0.441005000000000
     0.436682500000000    -0.017901500000000     0.070414500000000
1 7
    -0.007343000000000    -0.016246000000000     0.082421500000000
     0.016074500000000     0.041505500000000     0.019962000000000
     0.084377000000000     0.036036000000000    -0.138619000000000
1 8
    -0.007360500000000    -0.016096000000000    -0.084373000000000
     0.016224500000000     0.041486000000000     0.036034500000000
    -0.082367000000000     0.020019500000000    -0.138615000000000
1 9
     0.042814000000000     0.248457000000000     0.283489500000000
     0.002587500000000    -0.232984000000000    -0.173898000000000
     0.049015500000000    -0.009603500000000    -0.027448000000000
1 10
    -0.189557000000000     0.095618000000000    -0.033850000000000
     0.125633500000000    -0.228494500000000    -0.120832000000000
    -0.061726500000000     0.118065500000000     0.071391000000000
1 11
     0.042777000000000     0.002617000000000    -0.048987000000000
     0.248475000000000    -0.232967000000000     0.009657500000000
    -0.283483500000000     0.173922000000000    -0.027456000000000
1 12
    -0.189583000000000     0.125610500000000     0.061720500000000
     0.095624000000000    -0.228512500000000    -0.118033500000000
     0.033885000000000     0.120890500000000     0.071416500000000
1 13
     0.258121500000000     0.259113000000000     0.141195000000000
    -0.259105500000000    -0.582906500000000    -0.391274500000000
     0.141199500000000     0.391314500000000     0.321546000000000
1 14
    -0.134345500000000    -0.006776500000000    -0.044111500000000
     0.006848500000000    -0.070588500000000    -0.017827000000000
    -0.044127000000000     0.017832500000000     0.078247000000000
1 15
     0.341844000000000     0.286708500000000     0.094548500000000
    -0.286717000000000    -0.239367000000000    -0.007069000000000
     0.094563000000000     0.007080000000000    -0.145861000000000
1 16
    -0.122190500000000    -0.014730000000000     0.041378000000000
     0.014738500000000    -0.032898500000000    -0.016153500000000
     0.041386500000000     0.016145500000000    -0.054473000000000
1 17
     0.236487000000000     0.153920500000000    -0.118674500000000
     0.153917000000000    -0.498784000000000     0.177780000000000
    -0.118721000000000     0.177831000000000     0.025551000000000
1 18
    -0.524989000000000     0.293962000000000     0.042001000000000
     0.293927000000000    -0.193084000000000    -0.035383000000000
     0.042042500000000    -0.035390000000000     0.015503500000000
1 19
     0.200096500000000    -0.047395000000000    -0.051636000000000
    -0.047372500000000    -0.288193500000000     0.362450500000000
    -0.051625500000000     0.362469500000000    -0.381986000000000
1 20
    -0.114688000000000     0.086464000000000    -0.048458000000000
     0.086463000000000    -0.087802500000000     0.059153000000000
    -0.048445500000000     0.059158500000000    -0.057580000000000
1 21
     0.413325000000000     0.451393500000000    -0.130240000000000
    -0.451391000000000    -0.448515000000000     0.054705500000000
     0.130253000000000     0.054725000000000     0.139737000000000
1 22
    -0.292049500000000    -0.098234500000000    -0.007190500000000
     0.098334500000000    -0.263611000000000     0.080017000000000
     0.007147500000000     0.080015000000000     0.064600000000000
1 23
     0.056203000000000     0.027625000000000     0.026986500000000
    -0.027595000000000    -0.072499500000000     0.062491500000000
    -0.027016500000000     0.062479000000000    -0.132324000000000
1 24
    -0.113214500000000    -0.020356000000000    -0.058350500000000
     0.020335000000000    -0.182507500000000     0.234988000000000
     0.058370500000000     0.234995000000000    -0.281298000000000
1 25
    -0.816576000000000     0.051438500000000     0.569330500000000
    -0.374609000000000     0.412308000000000    -0.124840500000000
     1.125230500000000    -0.348349000000000    -0.064772500000000
1 26
    -0.816535500000000    -0.374615500000000    -1.125202000000000
     0.051444500000000     0.412284000000000     0.348295500000000
    -0.569284000000000     0.124831500000000    -0.064769500000000
1 27
     0.032482500000000    -0.114267500000000    -0.132768000000000
    -0.003422500000000     0.161615000000000     0.173255500000000
    -0.103590500000000    -0.117786000000000    -0.210765000000000
1 28
     0.032524500000000    -0.003386500000000     0.103647500000000
    -0.114316500000000     0.161643000000000     0.117801500000000
     0.132832500000000    -0.173299000000000    -0.210783500000000
1 29
     0.634330000000000    -0.117401000000000    -0.375771000000000
    -0.273748000000000     0.490847000000000     0.948350000000000
     0.221029500000000     0.022821000000000    -2.244087000000000
1 30
    -0.370575000000000    -0.110640000000000     0.068177500000000
     0.250500500000000     0.130946000000000    -0.008146000000000
    -0.141380500000000    -0.091297500000000    -0.029923000000000
1 31
     0.634305000000000     0.273764000000000     0.221059500000000
     0.117396000000000     0.490824500000000    -0.022801000000000
    -0.375776500000000    -0.948517000000000    -2.244161500000000
1 32
    -0.370647500000000    -0.250554000000000    -0.141374000000000
     0.110623000000000     0.130951500000000     0.091317500000000
     0.068216000000000     0.008186000000000    -0.029926500000000
1 33
    -0.917430500000000     0.840204500000000    -1.289174999999999
     1.122516000000000    -1.272752000000000     1.867972500000000
    -0.716536500000000     0.840747000000000    -1.447184500000000
1 34
     0.017868500000000    -0.126172500000000     0.140288500000000
    -0.104718500000000    -0.018605500000000    -0.015914500000000
     0.146313500000000     0.128715500000000    -0.051519000000000
1 35
    -0.021563000000000    -0.054368500000000     0.155006000000000
     0.066066000000000     0.148426500000000    -0.190059500000000
     0.020554500000000    -0.160191000000000     0.091332000000000
1 36
    -0.027595500000000     0.003289500000000    -0.067108500000000
     0.000220000000000     0.018039000000000    -0.002213500000000
    -0.134753500000000    -0.097801000000000    -0.006019000000000
1 37
     0.822571500000000     1.599187499999999    -1.662702499999999
     0.708770000000000    -2.731148000000000     2.524197000000000
    -0.945917000000000     2.148788500000000    -0.871734000000000
1 38
    -0.501338000000000    -0.006679000000000     0.135784500000000
     0.102834000000000     0.000312500000000    -0.025794000000000
    -0.020701500000000     0.000913500000000     0.122550000000000
1 39
     0.135056500000000    -0.110231000000000     0.116281000000000
    -0.089581000000000     0.086603000000000    -0.027579500000000
     0.093032500000000    -0.015699000000000    -0.149006000000000
1 40
    -0.108488000000000    -0.012676000000000     0.039772500000000
     0.022948500000000     0.020734500000000     0.002848000000000
     0.034591000000000     0.018073000000000    -0.086713000000000
1 41
    -0.009457000000000     1.674348499999999     0.708740500000000
     0.545654000000000    -2.553258500000000    -1.048601500000000
    -0.002678500000000     0.718710500000000     1.086682500000000
1 42
    -0.129004000000000    -0.164782000000000    -0.095861000000000
     0.025079500000000     0.003344500000000    -0.026402000000000
    -0.045092500000000     0.096345500000000     0.162281500000000
1 43
     0.119286500000000     0.015592500000000    -0.073243000000000
    -0.109920500000000     0.029533500000000     0.168570500000000
     0.074843500000000    -0.212852500000000    -0.356253500000000
1 44
    -0.095585000000000    -0.011708500000000     0.033303000000000
     0.022013500000000     0.018733000000000     0.038128000000000
     0.033646500000000    -0.066048000000000    -0.135396000000000
1 45
     0.123839500000000     1.717798999999999     1.483190499999999
     0.324721500000000    -1.260901000000000    -1.078476500000000
     0.288637500000000    -0.257119000000000     0.058245000000000
1 46
    -0.188306000000000    -0.203318500000000    -0.187887500000000
    -0.006382500000000     0.052067500000000    -0.060113000000000
     0.029974500000000     0.001150000000000     0.105844500000000
1 47
     0.036212500000000    -0.003028000000000    -0.040339000000000
     0.120261500000000     0.107423000000000     0.244734500000000
    -0.163884500000000    -0.105563000000000    -0.267224500000000
1 48
    -0.092761500000000    -0.003301000000000    -0.034819000000000
    -0.035249000000000     0.037527500000000     0.073061500000000
     0.093491500000000    -0.065455000000000    -0.101422000000000
1 49
     0.135031500000000    -0.230596500000000     0.065536500000000
    -0.311375500000000    -0.051768000000000    -0.307546500000000
     0.026773000000000    -0.350831000000000     0.298952500000000
1 50
    -0.164485500000000     0.096661000000000    -0.059544000000000
     0.111236000000000     0.047848000000000    -0.061775000000000
     0.027026500000000    -0.145519000000000     0.161037500000000
1 51
     0.081736000000000    -0.081977500000000     0.084548000000000
    -0.060712500000000    -0.146960500000000     0.194145000000000
    -0.007213500000000     0.286739500000000    -0.342513000000000
1 52
    -0.173330500000000     0.147352000000000    -0.206828500000000
     0.189941000000000    -0.137677000000000     0.241684000000000
    -0.142169000000000     0.164956000000000    -0.248908000000000
1 53
     0.252631000000000    -0.064374000000000    -0.080029500000000
    -0.053464500000000     0.121454500000000    -0.142711000000000
    -0.076000000000000    -0.199550500000000     0.108257000000000
1 54
    -0.277366500000000    -0.070539000000000     0.288498500000000
     0.144600500000000     0.068500500000000    -0.175243500000000
     0.007387500000000    -0.008762500000000    -0.001823000000000
1 55
     0.096243500000000    -1.126814999999999     0.772274500000000
    -0.097162000000000    -0.973820000000000     0.735270500000000
    -0.012693500000000     1.845299500000000    -1.611570000000000
1 56
    -0.123693500000000     0.198750000000000    -0.210319000000000
     0.070243500000000    -0.085069500000000     0.108071500000000
    -0.025232000000000     0.026643000000000    -0.021565500000000
1 57
     0.676991500000000     0.138343500000000     0.043220000000000
    -0.873800500000000    -1.187022500000000     0.501709000000000
     0.573644500000000     0.979340000000000    -0.019400000000000
1 58
    -0.370881000000000     0.007843500000000     0.127478500000000
     0.204355000000000    -0.084942000000000    -0.141914000000000
    -0.083877000000000     0.135328500000000     0.138375500000000
1 59
     0.140870500000000    -0.011846500000000    -0.088943500000000
    -0.038216500000000     0.032509000000000     0.062836000000000
    -0.015669500000000    -0.191704500000000    -0.203277500000000
1 60
    -0.124319000000000    -0.003888000000000     0.052868000000000
     0.027204500000000     0.048120500000000     0.046127500000000
     0.036533000000000    -0.094086000000000    -0.132670000000000
1 61
    -0.884416000000000    -1.179052499999999    -0.248875500000000
    -1.289346000000000    -1.016091500000000    -0.395108000000000
     0.590104000000000     0.582929500000000     0.768221500000000
1 62
    -2.141543999999999     1.613638499999999    -0.254946500000000
     1.028696000000000    -0.999845500000000     0.168882000000000
     0.258151500000000    -0.021905000000000     0.014618500000000
1 63
    -0.006588000000000     0.023123500000000     0.036144500000000
     0.004817500000000     0.110396500000000     0.160131500000000
    -0.055698500000000    -0.210323500000000    -0.343181500000000
1 64
     0.001675500000000    -0.016355000000000    -0.004572500000000
     0.020198500000000     0.064794000000000     0.073583000000000
    -0.040681000000000    -0.082657500000000    -0.134625500000000
1 65
    -4.324929499999998     0.998969000000000     0.052187500000000
     1.612276500000000    -1.907969000000000     0.226355000000000
     0.751902500000000    -0.055612500000000    -1.541651000000000
1 66
     1.215104999999999     0.500870500000000    -0.371666000000000
    -0.062914000000000    -0.747229000000000     0.594184000000000
    -0.041220500000000     0.446634000000000    -0.902246000000000
1 67
    -0.141242500000000     0.057921500000000    -0.020804000000000
     0.030289000000000    -0.204175500000000    -0.214282500000000
     0.011642000000000     0.067490500000000     0.470826500000000
1 68
     0.189096000000000     0.049171500000000    -0.007495000000000
    -0.037625500000000    -0.125361000000000    -0.151154500000000
    -0.052469500000000     0.063342000000000     0.341596500000000
1 69
    -1.376018499999999     0.347133500000000    -0.248034000000000
     0.579624500000000    -2.005825500000000     0.458241000000000
    -1.034038000000000     1.318387500000000    -2.227875500000001
1 70
     1.171083499999999     0.580384500000000     0.009583500000000
    -0.267278000000000    -0.247448500000000     0.129674500000000
    -0.156118000000000    -0.056035500000000    -0.211454500000000
1 71
    -0.147085000000000     0.017045500000000    -0.110236500000000
     0.117430000000000    -0.171683500000000    -0.121725000000000
    -0.243081500000000     0.458406000000000     0.770116000000000
1 72
     0.159662500000000     0.047916500000000     0.110987000000000
    -0.047360500000000    -0.062707500000000    -0.105965000000000
     0.072805000000000     0.039132000000000     0.200290500000000
1 73
    -0.854779000000000    -0.605751500000000    -0.678806500000000
     0.500244500000000     0.563686500000000     0.483118000000000
    -0.054351000000000     0.067817000000000     0.073377000000000
1 74
     0.475881000000000     0.027167000000000    -0.003735000000000
    -0.194357000000000     0.070899500000000     0.074874000000000
     0.024224500000000    -0.062203000000000     0.023817500000000
1 75
    -0.668686000000000    -0.445276500000000     0.556703000000000
     0.031411500000000     1.190690500000000    -0.814292500000000
     0.419199000000000    -0.961491500000000     0.466567500000000
1 76
     0.364353000000000    -0.098907000000000     0.105162000000000
    -0.122583500000000     0.151796000000000    -0.060704500000000
    -0.044470500000000    -0.048580000000000    -0.011779000000000
1 77
     0.283744500000000    -0.472571500000000    -0.536866500000000
    -0.553068000000000     0.778377500000000     0.869378500000000
     0.173510500000000    -0.291346500000000    -0.520507500000000
1 78
     0.072698000000000    -0.010099500000000     0.126400000000000
     0.076484000000000     0.251182500000000     0.149723000000000
     0.161860500000000    -0.025452000000000    -0.302267000000000
1 79
    -0.123718500000000    -0.555928500000000     0.489535000000000
    -0.023188500000000     0.768313500000000    -0.709839000000000
     0.036965500000000    -0.516783000000000     0.681070500000000
1 80
     0.126694500000000    -0.063373500000000    -0.203162500000000
     0.018585000000000     0.187473500000000    -0.002309000000000
    -0.114284500000000    -0.123687000000000     0.230392000000000
1 81
    -0.078401500000000     0.445661500000000     0.442286000000000
     0.037000500000000     0.681325500000000     0.475141500000000
     0.103153500000000    -0.295161000000000    -0.529327500000000
1 82
     0.520123000000000    -1.340423499999999    -0.807323500000000
    -0.380712000000000     0.928317000000000     0.418768000000000
    -0.096905500000000     0.045095500000000    -0.040920500000000
1 83
     0.098581000000000     0.158173000000000    -0.238313000000000
     0.406827500000000     0.301194500000000    -0.430012000000000
    -0.581487500000000    -0.426726000000000     0.751518000000000
1 84
     0.034035500000000    -0.096765000000000     0.122956000000000
    -0.105450000000000     0.072914500000000    -0.180639000000000
     0.114695500000000    -0.010723500000000     0.202582000000000
1 85
    -1.017619499999999    -0.632143000000000    -0.201037000000000
     0.853565500000000     1.474647500000000     0.504345000000000
    -0.284968500000000    -0.656595500000000    -0.782935000000000
1 86
     0.557369000000000    -0.140109000000000     0.183634500000000
    -0.212763500000000     0.206800000000000     0.011970500000000
    -0.029091500000000    -0.066367500000000    -0.273524500000000
1 87
    -0.191321500000000    -0.022840000000000    -0.035286500000000
    -0.011564000000000     0.231644500000000    -0.261027000000000
     0.158720500000000    -0.126761500000000     0.516501500000000
1 88
     0.281431000000000    -0.078634500000000     0.089240000000000
    -0.164463500000000     0.114021000000000    -0.172554500000000
     0.043842500000000    -0.074081500000000     0.259747000000000
1 89
    -2.229913499999999     1.176145999999999    -0.273438500000000
     0.473469500000000    -1.025766000000000     0.085612500000000
     0.086146000000000    -0.972257000000000    -0.578056000000000
1 90
     1.171218499999999     0.263297000000000     0.758097500000000
    -0.441108000000000    -0.263728500000000    -0.342952000000000
     0.179216000000000    -0.191125000000000    -0.214598000000000
1 91
    -0.209051500000000     0.216687500000000     0.124976000000000
    -0.090247500000000    -0.594628000000000    -0.257783500000000
     0.404899500000000     0.744069000000000     0.818480000000000
1 92
     0.222568000000000     0.143025000000000    -0.160849000000000
    -0.056365500000000    -0.219474500000000     0.000785500000000
    -0.039177000000000     0.145871000000000     0.185689000000000
1 93
    -0.812901000000000     0.424722000000000    -0.469031000000000
     0.860475500000000    -0.335021500000000    -0.384558000000000
    -0.878312000000000    -0.286305500000000     0.486142500000000
1 94
     0.736438000000000    -0.063034000000000     0.371026000000000
    -0.706714500000000    -0.190197500000000    -0.259183000000000
     0.501169000000000     0.022451000000000     0.281546500000000
1 95
    -0.596526500000000     0.449059000000000     0.679921500000000
     0.211299500000000    -0.440966500000000     0.161553500000000
     0.827024000000000     0.702180500000000     0.120464000000000
1 96
     0.541753000000000    -0.239455000000000    -0.355758500000000
    -0.108734000000000    -0.285240500000000    -0.034523000000000
    -0.279979500000000     0.466007000000000     0.264387500000000
2 1
    -0.625291500000000     0.110162500000000     0.015586500000000
     0.110154000000000     0.087717500000000    -0.086122500000000
     0.015563500000000    -0.086106500000000     0.163640000000000
2 2
    13.485314499999992    -5.403384499999998     0.555789500000000
    -5.402269500000001    12.159992500000001    -4.971771000000000
     0.555297000000000    -4.971858500000001    10.336544000000002
2 3
    -0.104468000000000     0.018843000000000     0.011578500000000
     0.018874500000000     0.006060500000000     0.026807500000000
     0.011558500000000     0.026794000000000    -0.095582500000000
2 4
     0.118618500000000    -0.068242500000000     0.006050000000000
    -0.068287500000000     0.057357500000000     0.097297000000000
     0.006043500000000     0.097303000000000    -0.440940000000000
2 5
    -1.730682499999999    -1.244096999999999     1.334188999999999
     0.211777500000000     0.727897500000000    -0.441005000000000
     0.436682500000000    -0.017901500000000     0.070414500000000
2 6
    -1.730651999999999    -0.211739500000000    -0.436759000000000
     1.243947500000000     0.727912500000000    -0.017926000000000
    -1.334078000000000    -0.441005500000000     0.070419000000000
2 7
    -0.007360500000000    -0.016096000000000    -0.084373000000000
     0.016224500000000     0.041486000000000     0.036034500000000
    -0.082367000000000     0.020019500000000    -0.138615000000000
2 8
    -0.007343000000000    -0.016246000000000     0.082421500000000
     0.016074500000000     0.041505500000000     0.019962000000000
     0.084377000000000     0.036036000000000    -0.138619000000000
2 9
    -0.189557000000000     0.095618000000000    -0.033850000000000
     0.125633500000000    -0.228494500000000    -0.120832000000000
    -0.061726500000000     0.118065500000000     0.071391000000000
2 10
     0.042814000000000     0.248457000000000     0.283489500000000
     0.002587500000000    -0.232984000000000    -0.173898000000000
     0.049015500000000    -0.009603500000000    -0.027448000000000
2 11
    -0.189583000000000     0.125610500000000     0.061720500000000
     0.095624000000000    -0.228512500000000    -0.118033500000000
     0.033885000000000     0.120890500000000     0.071416500000000
2 12
     0.042777000000000     0.002617000000000    -0.048987000000000
     0.248475000000000    -0.232967000000000     0.009657500000000
    -0.283483500000000     0.173922000000000    -0.027456000000000
2 13
    -0.134345500000000    -0.006776500000000    -0.044111500000000
     0.006848500000000    -0.070588500000000    -0.017827000000000
    -0.044127000000000     0.017832500000000     0.078247000000000
2 14
     0.258121500000000     0.259113000000000     0.141195000000000
    -0.259105500000000    -0.582906500000000    -0.391274500000000
     0.141199500000000     0.391314500000000     0.321546000000000
2 15
    -0.122190500000000    -0.014730000000000     0.041378000000000
     0.014738500000000    -0.032898500000000    -0.016153500000000
     0.041386500000000     0.016145500000000    -0.054473000000000
2 16
     0.341844000000000     0.286708500000000     0.094548500000000
    -0.286717000000000    -0.239367000000000    -0.007069000000000
     0.094563000000000     0.007080000000000    -0.145861000000000
2 17
    -0.524989000000000     0.293962000000000     0.042001000000000
     0.293927000000000    -0.193084000000000    -0.035383000000000
     0.042042500000000    -0.035390000000000     0.015503500000000
2 18
     0.236487000000000     0.153920500000000    -0.118674500000000
     0.153917000000000    -0.498784000000000     0.177780000000000
    -0.118721000000000     0.177831000000000     0.025551000000000
2 19
    -0.114688000000000     0.086464000000000    -0.048458000000000
     0.086463000000000    -0.087802500000000     0.059153000000000
    -0.048445500000000     0.059158500000000    -0.057580000000000
2 20
     0.200096500000000    -0.047395000000000    -0.051636000000000
    -0.047372500000000    -0.288193500000000     0.362450500000000
    -0.051625500000000     0.362469500000000    -0.381986000000000
2 21
    -0.292049500000000    -0.098234500000000    -0.007190500000000
     0.098334500000000    -0.263611000000000     0.080017000000000
     0.007147500000000     0.080015000000000     0.064600000000000
2 22
     0.413325000000000     0.451393500000000    -0.130240000000000
    -0.451391000000000    -0.448515000000000     0.054705500000000
     0.130253000000000     0.054725000000000     0.139737000000000
2 23
    -0.113214500000000    -0.020356000000000    -0.058350500000000
     0.020335000000000    -0.182507500000000     0.234988000000000
     0.058370500000000     0.234995000000000    -0.281298000000000
2 24
     0.056203000000000     0.027625000000000     0.026986500000000
    -0.027595000000000    -0.072499500000000     0.062491500000000
    -0.027016500000000     0.062479000000000    -0.132324000000000
2 25
    -0.816535500000000    -0.374615500000000    -1.125202000000000
     0.051444500000000     0.412284000000000     0.348295500000000
    -0.569284000000000     0.124831500000000    -0.064769500000000
2 26
    -0.816576000000000     0.051438500000000     0.569330500000000
    -0.374609000000000     0.412308000000000    -0.124840500000000
     1.125230500000000    -0.348349000000000    -0.064772500000000
2 27
     0.032524500000000    -0.003386500000000     0.103647500000000
    -0.114316500000000     0.161643000000000     0.117801500000000
     0.132832500000000    -0.173299000000000    -0.210783500000000
2 28
     0.032482500000000    -0.114267500000000    -0.132768000000000
    -0.003422500000000     0.161615000000000     0.173255500000000
    -0.103590500000000    -0.117786000000000    -0.210765000000000
2 29
    -0.370575000000000    -0.110640000000000     0.068177500000000
     0.250500500000000     0.130946000000000    -0.008146000000000
    -0.141380500000000    -0.091297500000000    -0.029923000000000
2 30
     0.634330000000000    -0.117401000000000    -0.375771000000000
    -0.273748000000000     0.490847000000000     0.948350000000000
     0.221029500000000     0.022821000000000    -2.244087000000000
2 31
    -0.370647500000000    -0.250554000000000    -0.141374000000000
     0.110623000000000     0.130951500000000     0.091317500000000
     0.068216000000000     0.008186000000000    -0.029926500000000
2 32
     0.634305000000000     0.273764000000000     0.221059500000000
     0.117396000000000     0.490824500000000    -0.022801000000000
    -0.375776500000000    -0.948517000000000    -2.244161500000000
2 33
     0.017868500000000    -0.126172500000000     0.140288500000000
    -0.104718500000000    -0.018605500000000    -0.015914500000000
     0.146313500000000     0.128715500000000    -0.051519000000000
2 34
    -0.917430500000000     0.840204500000000    -1.289174999999999
     1.122516000000000    -1.272752000000000     1.867972500000000
    -0.716536500000000     0.840747000000000    -1.447184500000000
2 35
    -0.027595500000000     0.003289500000000    -0.067108500000000
     0.000220000000000     0.018039000000000    -0.002213500000000
    -0.134753500000000    -0.097801000000000    -0.006019000000000
2 36
    -0.021563000000000    -0.054368500000000     0.155006000000000
     0.066066000000000     0.148426500000000    -0.190059500000000
     0.020554500000000    -0.160191000000000     0.091332000000000
2 37
    -0.501338000000000    -0.006679000000000     0.135784500000000
     0.102834000000000     0.000312500000000    -0.025794000000000
    -0.020701500000000     0.000913500000000     0.122550000000000
2 38
     0.822571500000000     1.599187499999999    -1.662702499999999
     0.708770000000000    -2.731148000000000     2.524197000000000
    -0.945917000000000     2.148788500000000    -0.871734000000000
2 39
    -0.108488000000000    -0.012676000000000     0.039772500000000
     0.022948500000000     0.020734500000000     0.002848000000000
     0.034591000000000     0.018073000000000    -0.086713000000000
2 40
     0.135056500000000    -0.110231000000000     0.116281000000000
    -0.089581000000000     0.086603000000000    -0.027579500000000
     0.093032500000000    -0.015699000000000    -0.149006000000000
2 41
    -0.129004000000000    -0.164782000000000    -0.095861000000000
     0.025079500000000     0.003344500000000    -0.026402000000000
    -0.045092500000000     0.096345500000000     0.162281500000000
2 42
    -0.009457000000000     1.674348499999999     0.708740500000000
     0.545654000000000    -2.553258500000000    -1.048601500000000
    -0.002678500000000     0.718710500000000     1.086682500000000
2 43
    -0.095585000000000    -0.011708500000000     0.033303000000000
     0.022013500000000     0.018733000000000     0.038128000000000
     0.033646500000000    -0.066048000000000    -0.135396000000000
2 44
     0.119286500000000     0.015592500000000    -0.073243000000000
    -0.109920500000000     0.029533500000000     0.168570500000000
     0.074843500000000    -0.212852500000000    -0.356253500000000
2 45
    -0.188306000000000    -0.203318500000000    -0.187887500000000
    -0.006382500000000     0.052067500000000    -0.060113000000000
     0.029974500000000     0.001150000000000     0.105844500000000
2 46
     0.123839500000000     1.717798999999999     1.483190499999999
     0.324721500000000    -1.260901000000000    -1.078476500000000
     0.288637500000000    -0.257119000000000     0.058245000000000
2 47
    -0.092761500000000    -0.003301000000000    -0.034819000000000
    -0.035249000000000     0.037527500000000     0.073061500000000
     0.093491500000000    -0.065455000000000    -0.101422000000000
2 48
     0.036212500000000    -0.003028000000000    -0.040339000000000
     0.120261500000000     0.107423000000000     0.244734500000000
    -0.163884500000000    -0.105563000000000    -0.267224500000000
2 49
    -0.164485500000000     0.096661000000000    -0.059544000000000
     0.111236000000000     0.047848000000000    -0.061775000000000
     0.027026500000000    -0.145519000000000     0.161037500000000
2 50
     0.135031500000000    -0.230596500000000     0.065536500000000