96   
18   

1    
  0.0100000000000000   0.0000000000000000   0.0000000000000000
  -0.1330587300    0.0527888700   -0.0057379800
   0.0062675600   -0.0012215200   -0.0001627500
  -0.0011464900    0.0005543500   -0.0000629100
   0.0010747600   -0.0003116500   -0.0001173400
   0.0174222900    0.0022251700    0.0044157400
   0.0171875100    0.0124573200   -0.0132092100
   0.0000998900    0.0002838300   -0.0008215000
   0.0001145200    0.0002843700    0.0008464800
  -0.0004589500   -0.0023504800   -0.0028253200
   0.0018515500   -0.0008273500    0.0003361100
  -0.0004534300    0.0000926000    0.0004862000
   0.0018518900   -0.0011295400   -0.0006220100
  -0.0026179100   -0.0027142600   -0.0014067300
   0.0013112500   -0.0000530400    0.0004407900
  -0.0034405900   -0.0029766800   -0.0009328400
   0.0011848400    0.0000254400   -0.0004071700
  -0.0023970800   -0.0014063400    0.0011841600
   0.0051955700   -0.0028057500   -0.0004142100
  -0.0020312700    0.0005887600    0.0005276600
   0.0011117200   -0.0007395000    0.0004857700
  -0.0041483500   -0.0046150400    0.0012875700
   0.0028749000    0.0008581000    0.0000660400
  -0.0005906800   -0.0003980300   -0.0002694000
   0.0010901200    0.0000788000    0.0005771600
   0.0082382700   -0.0006343500   -0.0057229000
   0.0081686500    0.0035907400    0.0111829200
  -0.0002993800    0.0010226100    0.0013337000
  -0.0002818000   -0.0000913300   -0.0010265900
  -0.0062906000    0.0013085100    0.0036759900
   0.0037294600    0.0012285100   -0.0006769800
  -0.0063027700   -0.0025848200   -0.0021308400
   0.0037298600    0.0026171700    0.0014009400
   0.0091044600   -0.0083955500    0.0128422900
  -0.0002411000    0.0012388100   -0.0013875300
   0.0001381300    0.0005294200   -0.0015500900
   0.0002131700   -0.0000471300    0.0006728800
  -0.0082085900   -0.0159826000    0.0166095400
   0.0049311400    0.0000882100   -0.0013643700
  -0.0014126900    0.0011065500   -0.0011558800
   0.0010098300    0.0001399200   -0.0003945900
   0.0001441800   -0.0167195900   -0.0070875100
   0.0013592700    0.0016482500    0.0009474100
  -0.0011205900   -0.0001325400    0.0007382400
   0.0010216500    0.0001326600   -0.0003276600
  -0.0011136600   -0.0170984000   -0.0147343300
   0.0019429600    0.0020213000    0.0018765600
  -0.0002870600    0.0000158700    0.0004063400
   0.0009887200    0.0000174200    0.0003429500
  -0.0012666500    0.0023297400   -0.0006542400
   0.0017064900   -0.0009538600    0.0005907500
  -0.0007397500    0.0008346100   -0.0008444800
   0.0017953000   -0.0014637100    0.0020675200
  -0.0024517300    0.0006172900    0.0008047900
   0.0028319000    0.0006875000   -0.0028684800
  -0.0008627500    0.0112261300   -0.0077054300
   0.0013054200   -0.0019909900    0.0020922200
  -0.0068251500   -0.0013583800   -0.0004510500
   0.0036259900   -0.0000979500   -0.0012725100
  -0.0014716500    0.0001063600    0.0008865800
   0.0011720700    0.0000227700   -0.0005316600
   0.0087749500    0.0118527400    0.0024837700
   0.0211890400   -0.0160256300    0.0025392000
  -0.0000069900   -0.0002155800   -0.0003584900
  -0.0000818800    0.0001780000    0.0000497900
   0.0413154300   -0.0089441400   -0.0004955100
  -0.0121690400   -0.0051430000    0.0037169700
   0.0013389100   -0.0006960200    0.0002022600
  -0.0019369500   -0.0006119700    0.0000709400
   0.0138135200   -0.0037888600    0.0029272300
  -0.0117120200   -0.0056418900   -0.0000946900
   0.0014243700   -0.0000714900    0.0010826100
  -0.0016594500   -0.0003543000   -0.0011067600
   0.0085598700    0.0061548900    0.0067529200
  -0.0046828400   -0.0001546500    0.0000314200
   0.0067267100    0.0045889800   -0.0055766400
  -0.0035713100    0.0011016300   -0.0010429900
  -0.0027604800    0.0045962800    0.0053599400
  -0.0006844500   -0.0000222900   -0.0012515700
   0.0012985100    0.0054211800   -0.0048884200
  -0.0012071600    0.0005096800    0.0020178500
   0.0008551100   -0.0043229900   -0.0044167300
  -0.0051288900    0.0134643200    0.0080403600
  -0.0009111100   -0.0014524600    0.0023718800
  -0.0002924000    0.0010835800   -0.0012265800
   0.0102174800    0.0061592100    0.0020034500
  -0.0054970000    0.0012793300   -0.0018241700
   0.0019618300    0.0001071000    0.0003435500
  -0.0027471900    0.0006650100   -0.0008901400
   0.0222971500   -0.0116513800    0.0023936100
  -0.0117377900   -0.0027384000   -0.0075417400
   0.0020469400   -0.0022608300   -0.0012318200
  -0.0022855700   -0.0015459100    0.0015940400
   0.0079933100   -0.0041171900    0.0046747800
  -0.0073946800    0.0007665400   -0.0037231200
   0.0058382600   -0.0043632100   -0.0067982700
  -0.0054600200    0.0025261600    0.0035622900

1    
 -0.0100000000000000   0.0000000000000000   0.0000000000000000
   0.1366475600   -0.0552788200    0.0053778100
  -0.0062382700    0.0009817300    0.0001489800
   0.0012258800   -0.0008105000    0.0000580900
  -0.0010146000    0.0000652100    0.0001142300
  -0.0171907500   -0.0020096200   -0.0043194400
  -0.0174261400   -0.0124246200    0.0134745700
  -0.0000469700   -0.0000410900    0.0008269300
  -0.0000326900   -0.0000375500   -0.0008409800
   0.0003973300    0.0026186600    0.0028444700
  -0.0019395900    0.0010850100   -0.0003408900
   0.0004021100    0.0001449400   -0.0004935400
  -0.0019397700    0.0013826700    0.0006124000
   0.0025445200    0.0024680000    0.0014171700
  -0.0013756600   -0.0001885700   -0.0004414400
   0.0033962900    0.0027574900    0.0009581300
  -0.0012589700   -0.0002691600    0.0004203900
   0.0023326600    0.0016720700   -0.0011893300
  -0.0053042100    0.0030734900    0.0004258100
   0.0019706600   -0.0003591400   -0.0005050600
  -0.0011820400    0.0009897800   -0.0004833900
   0.0041181500    0.0044128300   -0.0013172300
  -0.0029660900   -0.0011065900   -0.0000777700
   0.0005333800    0.0001544700    0.0002703300
  -0.0011741700   -0.0003283200   -0.0005898500
  -0.0080932500    0.0003944200    0.0056637100
  -0.0081620600   -0.0039015700   -0.0113211200
   0.0003502700   -0.0012627400   -0.0013216600
   0.0003686900   -0.0001590600    0.0010463600
   0.0063960000   -0.0010395100   -0.0038394300
  -0.0036820400   -0.0009842900    0.0006865700
   0.0063833300    0.0028904600    0.0022903500
  -0.0036830900   -0.0023939100   -0.0014265400
  -0.0092441500    0.0084085400   -0.0129412100
   0.0001162700   -0.0012846400    0.0014182400
  -0.0002931300   -0.0005579500    0.0015500300
  -0.0003387400    0.0000186600   -0.0006692900
   0.0082428400    0.0160011500   -0.0166445100
  -0.0050956200   -0.0000453700    0.0013513200
   0.0012884400   -0.0010980700    0.0011697400
  -0.0011599300   -0.0001136000    0.0004008600
  -0.0000449600    0.0167673800    0.0070873000
  -0.0012208100   -0.0016473900   -0.0009698100
   0.0012651400    0.0001793100   -0.0007266200
  -0.0008900500   -0.0001015100    0.0003384000
   0.0013631300    0.0172575800    0.0149294800
  -0.0018231600   -0.0020450700   -0.0018811900
   0.0004371900   -0.0000446900   -0.0004004400
  -0.0008665100   -0.0000486000   -0.0003534300
   0.0014339800   -0.0022821900    0.0006564900
  -0.0015832200    0.0009793600   -0.0006001300
   0.0008949700   -0.0008049400    0.0008464800
  -0.0016713100    0.0014833300   -0.0020690500
   0.0026008900   -0.0006701900   -0.0007958000
  -0.0027154300   -0.0007232800    0.0029014900
   0.0010621200   -0.0113101700    0.0077400600
  -0.0011684500    0.0019840100   -0.0021141600
   0.0067146800    0.0014084900    0.0004133500
  -0.0037916300    0.0000589200    0.0012770600
   0.0013457600   -0.0001305700   -0.0008922900
  -0.0013143100   -0.0000549900    0.0005257000
  -0.0089133700   -0.0117283100   -0.0024937400
  -0.0216418400    0.0162471400   -0.0025597300
  -0.0001387500    0.0002468900    0.0003644000
  -0.0000483700   -0.0001491000   -0.0000416600
  -0.0451831600    0.0110352400    0.0005482400
   0.0121330600    0.0048744100   -0.0037163500
  -0.0014859400    0.0004624100   -0.0002138200
   0.0018449700    0.0003714600   -0.0000789600
  -0.0137068500    0.0031538100   -0.0020334500
   0.0117096500    0.0059658000    0.0000969800
  -0.0015173300    0.0002694200   -0.0011221200
   0.0015338000    0.0006040300    0.0011129800
  -0.0085357100   -0.0059601400   -0.0068232100
   0.0048347800    0.0003886900   -0.0000432800
  -0.0066470100   -0.0043165500    0.0055574200
   0.0037157500   -0.0008765100    0.0010602500
   0.0029144100   -0.0048551500   -0.0053773900
   0.0007695100   -0.0002242800    0.0012764300
  -0.0011758600   -0.0056973900    0.0049022800
   0.0013267300   -0.0007577900   -0.0020454000
  -0.0007129200    0.0045902400    0.0044289900
   0.0052735700   -0.0133441500   -0.0081061100
   0.0010605100    0.0017110000   -0.0023943800
   0.0003883100   -0.0008517200    0.0012325400
  -0.0101349100   -0.0064836500   -0.0020172900
   0.0056503800   -0.0015228500    0.0018485200
  -0.0018646000   -0.0003497000   -0.0003621800
   0.0028814300   -0.0009076800    0.0008946600
  -0.0223011200    0.0118715400   -0.0030751600
   0.0116865800    0.0025275400    0.0076202100
  -0.0021340900    0.0020729200    0.0012677000
   0.0021657900    0.0013145900   -0.0016229400
  -0.0082647100    0.0043772500   -0.0047058400
   0.0073340800   -0.0004941400    0.0036974000
  -0.0060922700    0.0046179700    0.0068001600
   0.0053750400   -0.0022629400   -0.0035528800

1    
  0.0000000000000000   0.0100000000000000   0.0000000000000000
   0.0539785000   -0.1213889400    0.0493410500
  -0.0010609200   -0.0009989000    0.0008550600
   0.0007166600   -0.0006983700   -0.0009716100
  -0.0001538300   -0.0001851800   -0.0002700100
  -0.0123719900   -0.0071070900    0.0001676100
  -0.0020401200   -0.0071400400    0.0043938400
  -0.0001279000   -0.0002909300   -0.0001931600
  -0.0001253800   -0.0002931200   -0.0003518000
  -0.0000639900    0.0024511700    0.0017330800
  -0.0012861900    0.0024010100    0.0012025300
  -0.0025244500    0.0024553500   -0.0001011100
  -0.0009819500    0.0023953000    0.0011674600
   0.0025518000    0.0056924500    0.0039047100
  -0.0001009400    0.0005823500    0.0001809300
   0.0028261400    0.0022658300    0.0000758900
  -0.0001814300    0.0002055100    0.0001645200
  -0.0015660300    0.0050919600   -0.0017646700
  -0.0029680100    0.0020483300    0.0003578600
   0.0004448600    0.0030010800   -0.0036253000
  -0.0008970300    0.0009993600   -0.0005871100
   0.0044588800    0.0043489400   -0.0005518100
  -0.0010045000    0.0025053900   -0.0008000000
   0.0002414700    0.0006014600   -0.0006275200
  -0.0002377800    0.0016952500   -0.0023459400
   0.0037540200   -0.0042426100    0.0012631600
  -0.0004480000   -0.0042515300   -0.0034619300
   0.0000664800   -0.0017337900   -0.0017233500
   0.0011766200   -0.0017370900   -0.0011743300
   0.0027623400   -0.0047439200   -0.0095049800
  -0.0024606700   -0.0011831800    0.0000750200
  -0.0011350200   -0.0047594200    0.0002911300
  -0.0010685400   -0.0011820700   -0.0009134200
  -0.0112412600    0.0126427200   -0.0185993900
   0.0009765800    0.0001766600    0.0001580700
  -0.0007279300   -0.0014798300    0.0018843400
  -0.0000666300   -0.0001892600    0.0000238200
  -0.0072239100    0.0274727600   -0.0254128500
  -0.0010892900    0.0000064200    0.0002559600
   0.0008260100   -0.0008548500    0.0002746100
  -0.0002995100   -0.0001928000   -0.0000291100
  -0.0053187800    0.0253310700    0.0103937000
  -0.0001789800   -0.0000124600    0.0002680500
   0.0011655600   -0.0002728000   -0.0016749700
  -0.0001514700   -0.0001697900   -0.0003760900
  -0.0032032400    0.0126020200    0.0107926900
   0.0001347300   -0.0005388600    0.0005964900
  -0.0011356600   -0.0010955200   -0.0024561500
   0.0004208300   -0.0003918200   -0.0007329500
   0.0031735400    0.0005496700    0.0030575300
  -0.0010363400   -0.0004532800    0.0006093200
   0.0006762500    0.0014868300   -0.0019397400
  -0.0018259100    0.0013894900   -0.0024139900
   0.0006011600   -0.0012361300    0.0014290400
  -0.0013752900   -0.0007005300    0.0017517000
   0.0010399400    0.0096856700   -0.0073027400
  -0.0006318700    0.0008295800   -0.0010741500
   0.0085992800    0.0117726500   -0.0049654700
  -0.0021039300    0.0008369100    0.0014138700
   0.0003109700   -0.0003313700   -0.0006230600
  -0.0003397800   -0.0004927600   -0.0004612100
   0.0128751200    0.0102092400    0.0039406400
  -0.0103088900    0.0099971400   -0.0017032900
  -0.0001172900   -0.0010877400   -0.0015961100
  -0.0002706800   -0.0006334900   -0.0007336100
  -0.0169244700    0.0191336200   -0.0021769700
   0.0005717300    0.0073452700   -0.0059129800
  -0.0003648800    0.0019279700    0.0021414900
   0.0003196600    0.0011324900    0.0015051100
  -0.0053214800    0.0196379500   -0.0038940000
   0.0025918100    0.0025762300   -0.0012938300
  -0.0012186000    0.0018116300    0.0012009000
   0.0004106700    0.0007472800    0.0010541100
  -0.0049398800   -0.0054988600   -0.0048329900
   0.0019962800   -0.0005865100   -0.0007471200
  -0.0002693000   -0.0117776800    0.0081736300
   0.0012776500   -0.0013868200    0.0006017900
   0.0055448700   -0.0078776300   -0.0086319500
  -0.0007019700   -0.0026407200   -0.0014947600
   0.0002856100   -0.0077864900    0.0070726600
  -0.0001223700   -0.0019969400    0.0000216900
  -0.0003123000   -0.0066667900   -0.0047490900
   0.0038719100   -0.0091298600   -0.0041687200
  -0.0039952900   -0.0028771300    0.0042917600
   0.0011135800   -0.0006063900    0.0018047600
  -0.0084210000   -0.0148329900   -0.0050201500
   0.0021722900   -0.0021915500   -0.0001191800
   0.0001762200   -0.0024386100    0.0026011900
   0.0016983400   -0.0012620700    0.0017229400
  -0.0046140700    0.0102869100   -0.0012294000
   0.0043291800    0.0025185200    0.0034128000
   0.0008518300    0.0058252100    0.0025795500
   0.0005000400    0.0020735100   -0.0000062400
  -0.0086484300    0.0034294600    0.0038427600
   0.0069816600    0.0020131000    0.0025855400
  -0.0021969600    0.0044903500   -0.0016340600
   0.0010312100    0.0029474100    0.0003380300

1    
  0.0000000000000000  -0.0100000000000000   0.0000000000000000
  -0.0540668900    0.1218109100   -0.0500943700
   0.0011421600    0.0007554500   -0.0008673900
  -0.0006490900    0.0004487800    0.0009743300
   0.0002236600   -0.0000639700    0.0002661400
   0.0125069600    0.0074511600   -0.0001909100
   0.0021954300    0.0074179100   -0.0044262600
   0.0001935900    0.0005391800    0.0002060800
   0.0001991100    0.0005366000    0.0003688900
  -0.0000122400   -0.0022085100   -0.0017448800
   0.0012264800   -0.0021688800   -0.0012141100
   0.0024450500   -0.0022039900    0.0000920400
   0.0009305300   -0.0021749500   -0.0011932100
  -0.0026303100   -0.0059656800   -0.0039207800
   0.0000360300   -0.0008294200   -0.0001756100
  -0.0029082000   -0.0025215100   -0.0000654900
   0.0001133400   -0.0004524600   -0.0001585500
   0.0015123100   -0.0048837200    0.0017909300
   0.0029105300   -0.0018133500   -0.0003498000
  -0.0005025900   -0.0027627900    0.0036237100
   0.0008322300   -0.0007566900    0.0005959500
  -0.0045689400   -0.0046213600    0.0005423000
   0.0009621900   -0.0027668300    0.0008003400
  -0.0003104300   -0.0008485300    0.0006223100
   0.0001689200   -0.0019549000    0.0023538200
  -0.0037381600    0.0040035500   -0.0012336500
   0.0005808900    0.0039941500    0.0035039800
  -0.0000019700    0.0014985100    0.0017417600
  -0.0011097100    0.0014957700    0.0011817000
  -0.0027126200    0.0050730200    0.0094620200
   0.0025493400    0.0014357400   -0.0000879000
   0.0012129000    0.0050570700   -0.0001648900
   0.0011439200    0.0014369600    0.0009129300
   0.0112090600   -0.0128123200    0.0187600600
  -0.0011177900   -0.0001954500   -0.0001602200
   0.0005933900    0.0014887000   -0.0019168500
  -0.0000622300    0.0001715200   -0.0000204500
   0.0069514900   -0.0271502000    0.0250710900
   0.0009673900    0.0000126700   -0.0002599200
  -0.0009656100    0.0008772100   -0.0002769800
   0.0001594600    0.0002218900    0.0000278500
   0.0055943000   -0.0257341000   -0.0105783300
   0.0003226100    0.0000544300   -0.0002599900
  -0.0010328500    0.0003178700    0.0016964400
   0.0002888000    0.0002048700    0.0003864700
   0.0032911900   -0.0126160000   -0.0107768400
   0.0000070800    0.0005024900   -0.0006057700
   0.0012695700    0.0010529400    0.0024385400
  -0.0002841500    0.0003587300    0.0007282800
  -0.0030539700   -0.0004856900   -0.0030934000
   0.0011883800    0.0005036800   -0.0006261800
  -0.0005380000   -0.0014523800    0.0019431600
   0.0019729100   -0.0013640500    0.0024196900
  -0.0004681300    0.0011929600   -0.0014251800
   0.0015167200    0.0006694800   -0.0017531700
  -0.0009033000   -0.0097907300    0.0074026700
   0.0007730000   -0.0008718100    0.0010872800
  -0.0088767300   -0.0119678000    0.0050687100
   0.0019831700   -0.0008619300   -0.0014244100
  -0.0004533600    0.0003188100    0.0006336600
   0.0002043100    0.0004696500    0.0004613400
  -0.0129118000   -0.0101125900   -0.0039615200
   0.0102650300   -0.0099997700    0.0016743500
  -0.0000209400    0.0011201900    0.0016065200
   0.0001332900    0.0006623900    0.0007380500
   0.0153210600   -0.0190257600    0.0023501300
  -0.0006865500   -0.0075993100    0.0059707000
   0.0002409000   -0.0021555400   -0.0021441600
  -0.0004328500   -0.0013747300   -0.0015179800
   0.0062710100   -0.0204785600    0.0052708200
  -0.0027537500   -0.0023727400    0.0012996600
   0.0011300000   -0.0016220400   -0.0012336000
  -0.0005365400   -0.0005068700   -0.0010651900
   0.0050650100    0.0057748700    0.0048293700
  -0.0018908600    0.0008314800    0.0007503600
   0.0003589300    0.0120361300   -0.0081122200
  -0.0011740200    0.0016491000   -0.0006123000
  -0.0055164900    0.0076899200    0.0087556200
   0.0008277100    0.0023829300    0.0014997000
  -0.0001781600    0.0075797800   -0.0071241200
   0.0002493300    0.0017525300   -0.0000244900
   0.0004277100    0.0069597200    0.0047537400
  -0.0037423300    0.0094364800    0.0042066400
   0.0041412600    0.0031467600   -0.0043084800
  -0.0009954200    0.0008519000   -0.0018080200
   0.0086503100    0.0146599600    0.0050667500
  -0.0020829800    0.0019444500    0.0001202300
  -0.0000550600    0.0021942800   -0.0026193500
  -0.0015909300    0.0010183500   -0.0017281500
   0.0048553200   -0.0102284100    0.0004828500
  -0.0044929800   -0.0027560500   -0.0034462400
  -0.0009531200   -0.0060673500   -0.0025761200
  -0.0006272700   -0.0023159800    0.0000094700
   0.0085610800   -0.0032709700   -0.0038484000
  -0.0071526300   -0.0017908500   -0.0025981200
   0.0020290300   -0.0043289800    0.0015970100
  -0.0011434700   -0.0027574000   -0.0003524300

1    
  0.0000000000000000   0.0000000000000000   0.0100000000000000
  -0.0064837200    0.0498540700   -0.1029818800
  -0.0001060000    0.0007367700   -0.0016383300
  -0.0000332800   -0.0010875400    0.0043939200
  -0.0000767400   -0.0003919100    0.0009494900
   0.0134098300    0.0045464900   -0.0007082400
  -0.0043006500    0.0003322600   -0.0007373800
  -0.0008005300   -0.0002347400    0.0013879500
   0.0008523700   -0.0000780300    0.0013915000
  -0.0005255200    0.0002081300    0.0002583600
   0.0005874100   -0.0010607700   -0.0007192700
   0.0027877000   -0.0016097200    0.0002732200
  -0.0003660600   -0.0010846000   -0.0007139700
  -0.0014472400   -0.0040310900   -0.0032037100
   0.0004099700   -0.0003003000   -0.0007736100
  -0.0009872800   -0.0002046800    0.0014528800
  -0.0004463900   -0.0002856100    0.0005445300
   0.0011459500   -0.0016571300   -0.0002503200
  -0.0004361600    0.0004658500   -0.0001524800
   0.0004748400   -0.0034904700    0.0038187300
   0.0004517900   -0.0004699700    0.0005808300
  -0.0013471300   -0.0006840500   -0.0013932500
  -0.0001029000   -0.0009221800   -0.0006468400
   0.0002306500   -0.0007496500    0.0013168300
  -0.0006128600   -0.0024628800    0.0028001300
  -0.0111489200    0.0033339700    0.0006552900
   0.0057322600   -0.0013507100    0.0006949600
   0.0010741900    0.0010537700    0.0021096600
  -0.0012950600    0.0016078600    0.0021034400
  -0.0021889600   -0.0001167800    0.0225959400
   0.0014557900    0.0010365800    0.0002910900
   0.0037371800    0.0095078100    0.0221915300
  -0.0006340400    0.0000508000    0.0003018900
   0.0070928200   -0.0084133900    0.0144874600
  -0.0015331600   -0.0012959600    0.0005102700
  -0.0002694300    0.0015779300   -0.0009037100
   0.0012727700    0.0009555300    0.0000680100
   0.0093222500   -0.0214056900    0.0087710200
   0.0001511700    0.0000033900   -0.0012233000
  -0.0010032300    0.0001798900    0.0014774600
  -0.0004113200   -0.0001621200    0.0008594500
   0.0000774600   -0.0071549900   -0.0108976400
   0.0005221500   -0.0009419400   -0.0016142700
  -0.0006800400    0.0021271600    0.0035482900
  -0.0002654000    0.0006746900    0.0013529400
  -0.0028203500    0.0025102300   -0.0006348900
  -0.0002270100   -0.0000214100   -0.0010559800
   0.0017002100    0.0010395100    0.0026658900
  -0.0008573600    0.0006385300    0.0010120500
  -0.0001968500    0.0035214200   -0.0029766700
  -0.0001963900    0.0014634000   -0.0016048600
   0.0001391400   -0.0028479600    0.0034155700
   0.0014906500   -0.0016342100    0.0024820400
   0.0008230500    0.0019896600   -0.0010928700
   0.0000051000    0.0000771800    0.0000075800
   0.0001725000   -0.0183520900    0.0159947500
   0.0003241800   -0.0002895700    0.0002281800
  -0.0058271400   -0.0098296200    0.0001825200
   0.0007780200   -0.0013679000   -0.0013888300
   0.0000789700    0.0018920800    0.0020300300
  -0.0004308400    0.0009238900    0.0013214600
  -0.0059824600   -0.0058206900   -0.0076425800
  -0.0025584500    0.0001614400   -0.0001241700
   0.0004907600    0.0021160900    0.0034279100
   0.0003350400    0.0008411900    0.0013450100
  -0.0075974800    0.0004963400    0.0153458100
   0.0003341200   -0.0046018200    0.0090141500
  -0.0001643700   -0.0008010400   -0.0046950300
   0.0004547100   -0.0007555200   -0.0034076400
   0.0107700400   -0.0137328100    0.0226510000
   0.0014694700    0.0006597100    0.0021141200
   0.0023559700   -0.0044331400   -0.0076663600
  -0.0007883600   -0.0002683000   -0.0020035700
   0.0006292600   -0.0005368700   -0.0007012000
  -0.0001949500    0.0007398600   -0.0002291900
  -0.0040941700    0.0097188000   -0.0046799600
   0.0004891000    0.0006102700    0.0001053300
  -0.0016757400    0.0027941900    0.0051902400
  -0.0015583600    0.0001339300    0.0030049700
  -0.0003140900    0.0050548900   -0.0067981800
   0.0012010900    0.0011191700   -0.0022910200
  -0.0009676400    0.0030695000    0.0052935200
   0.0010101900   -0.0002796200    0.0004435900
   0.0058503100    0.0043570600   -0.0074844600
  -0.0010839500    0.0002309400   -0.0020287400
   0.0029191800    0.0064449800    0.0078291100
   0.0003369900    0.0005496800    0.0027258700
  -0.0015167200    0.0011551200   -0.0051510600
  -0.0003876800    0.0006176400   -0.0025907600
  -0.0004417000    0.0099661100    0.0052158400
  -0.0018890800    0.0017754200    0.0021069400
  -0.0041063800   -0.0075824200   -0.0081662000
   0.0003261800   -0.0015817400   -0.0018415000
   0.0087401100    0.0029694300   -0.0048222800
  -0.0050840600   -0.0000989600   -0.0028114500
  -0.0082686900   -0.0068866000   -0.0012581200
   0.0027193900   -0.0045214300   -0.0026347900

1    
  0.0000000000000000   0.0000000000000000  -0.0100000000000000
   0.0046222200   -0.0495831000    0.1037490000
   0.0002052700   -0.0009853600    0.0016344700
   0.0000875900    0.0008585200   -0.0044248800
   0.0001544300    0.0001439700   -0.0009621600
  -0.0132717300   -0.0042736200    0.0007001400
   0.0044330000   -0.0000257700    0.0006709100
   0.0008870100    0.0004859800   -0.0013844300
  -0.0007949700    0.0003223600   -0.0013808000
   0.0004547900    0.0000160600   -0.0002906000
  -0.0006471200    0.0013005400    0.0007085500
  -0.0028819700    0.0018687200   -0.0002759000
   0.0003116400    0.0013332100    0.0007143600
   0.0013767500    0.0037952000    0.0032272100
  -0.0004725700    0.0000563500    0.0007913300
   0.0009039800   -0.0000630800   -0.0014643400
   0.0003813400    0.0000373000   -0.0005449300
  -0.0012284700    0.0018994900    0.0002607000
   0.0004046900   -0.0002419500    0.0001575900
  -0.0005576700    0.0037589200   -0.0038209900
  -0.0005171200    0.0007132000   -0.0005707700
   0.0012579300    0.0004104500    0.0014014900
   0.0000400500    0.0006781200    0.0006451600
  -0.0003096800    0.0004999300   -0.0013296500
   0.0005545500    0.0022370200   -0.0028258300
   0.0113556900   -0.0036330100   -0.0006401600
  -0.0056534200    0.0011459200   -0.0006004300
  -0.0009976200   -0.0013019500   -0.0021056400
   0.0013615900   -0.0018581200   -0.0021122300
   0.0022316300    0.0003396400   -0.0222858000
  -0.0013718200   -0.0007893700   -0.0003073700
  -0.0037783500   -0.0094625300   -0.0226917000
   0.0007302800    0.0002145200   -0.0002966400
  -0.0072379100    0.0084015500   -0.0144562300
   0.0013931100    0.0012783500   -0.0005201100
   0.0001416600   -0.0016258900    0.0009229300
  -0.0014223000   -0.0010004900   -0.0000523700
  -0.0095960900    0.0215700800   -0.0086636600
  -0.0002628600    0.0000216600    0.0012277000
   0.0008574200   -0.0001340900   -0.0015026600
   0.0002805000    0.0001993400   -0.0008748100
   0.0000238900    0.0072192200    0.0108360100
  -0.0003797000    0.0009849700    0.0016313600
   0.0008168300   -0.0021298900   -0.0035767800
   0.0004075300   -0.0006462700   -0.0013549800
   0.0029524000   -0.0026321500    0.0005300100
   0.0003724800    0.0000015900    0.0010609100
  -0.0015774800   -0.0010717500   -0.0026786000
   0.0010124700   -0.0006705700   -0.0010163900
   0.0003386100   -0.0034952000    0.0030023800
   0.0003441400   -0.0014469800    0.0016158900
  -0.0000051300    0.0028868300   -0.0034346900
  -0.0013527300    0.0016649100   -0.0024961200
  -0.0006969500   -0.0020013500    0.0010722700
   0.0001528500   -0.0000980700   -0.0000288800
  -0.0000813700    0.0185539000   -0.0162366500
  -0.0001804600    0.0002432900   -0.0002031300
   0.0056457500    0.0097571800   -0.0002054800
  -0.0008995200    0.0013386700    0.0013786800
  -0.0002344200   -0.0019420100   -0.0020355200
   0.0002998200   -0.0009578300   -0.0013319400
   0.0058196200    0.0058379000    0.0077218500
   0.0026045800   -0.0002766600    0.0001682000
  -0.0006232100   -0.0020903800   -0.0034357200
  -0.0004785800   -0.0008119600   -0.0013475000
   0.0074405700   -0.0006159100   -0.0154872100
  -0.0004902900    0.0043308600   -0.0090307700
   0.0000684700    0.0005487700    0.0047215000
  -0.0005946800    0.0005113200    0.0034242900
  -0.0099107200    0.0126349400   -0.0219065100
  -0.0016528900   -0.0004610000   -0.0021149700
  -0.0025056600    0.0047349800    0.0077359600
   0.0006677400    0.0005143400    0.0020022400
  -0.0004577600    0.0008194700    0.0007663400
   0.0002895400   -0.0005042000    0.0002471600
   0.0042898100   -0.0095110300    0.0046513900
  -0.0004003100   -0.0003613300   -0.0001302500
   0.0017944700   -0.0030327400   -0.0052199100
   0.0016788500   -0.0003751100   -0.0030403700
   0.0004252200   -0.0052807700    0.0068232300
  -0.0010846000   -0.0013545700    0.0023168200
   0.0010954300   -0.0028337200   -0.0052930300
  -0.0009279200    0.0006222900   -0.0003748200
  -0.0057794400   -0.0041774600    0.0075459000
   0.0012099600    0.0000164700    0.0020229000
  -0.0027801900   -0.0066869300   -0.0078295900
  -0.0002448400   -0.0007776700   -0.0027446200
   0.0016576900   -0.0013801100    0.0051789700
   0.0004891700   -0.0008639900    0.0026041800
   0.0012812200   -0.0094790300   -0.0063452800
   0.0016952400   -0.0020470800   -0.0021850200
   0.0039916100    0.0072989600    0.0082034000
  -0.0004573600    0.0013356800    0.0018722800
  -0.0088261300   -0.0027566800    0.0049005700
   0.0049393200    0.0003500600    0.0028194800
   0.0082717900    0.0071570100    0.0011511600
  -0.0028802000    0.0047987100    0.0026529600

33   
  0.0100000000000000   0.0000000000000000   0.0000000000000000
   0.0091849900   -0.0113439100    0.0071564500
  -0.0001539200    0.0009351100   -0.0014758400
   0.0002581600   -0.0007946200   -0.0002051200
   0.0003073800   -0.0001239200    0.0013497300
  -0.0082436100    0.0071700700   -0.0094356800
   0.0050591300    0.0011587800   -0.0002056300
  -0.0013230300   -0.0007770400    0.0009362700
   0.0011222300    0.0003524300    0.0003509100
   0.0012613400   -0.0001300400   -0.0004534900
  -0.0000022000   -0.0052629100   -0.0000042700
   0.0009239400   -0.0001010700    0.0003287900
  -0.0012291000    0.0012209400    0.0007335600
  -0.0003942600    0.0010765200    0.0016384400
   0.0008918000   -0.0004814900   -0.0009376700
  -0.0012485000    0.0031228700   -0.0028650600
   0.0018421300   -0.0001933800   -0.0002995800
  -0.0013702800    0.0032319800   -0.0002523900
   0.0016071700   -0.0009954500   -0.0002594500
  -0.0008470400    0.0007343800    0.0000692600
   0.0017001200   -0.0017843400    0.0014299800
   0.0027363800    0.0013193500    0.0000692400
  -0.0025718400   -0.0006659200   -0.0007570100
   0.0012130400    0.0005829000   -0.0002548100
  -0.0010626800   -0.0010537000   -0.0002365600
  -0.0013740300    0.0002610100   -0.0001504700
   0.0012795200   -0.0003951000    0.0003671700
  -0.0067840100    0.0086481800    0.0057738700
   0.0037513200   -0.0021646400   -0.0008285500
   0.0088430400   -0.0126927500   -0.0058788800
   0.0216133100    0.0104632200   -0.0026036500
   0.0001059900    0.0001687200    0.0005469000
   0.0000161800    0.0003242300    0.0004021400
  -0.1143553800    0.0036277300   -0.0501000600
   0.0031977700    0.0000296100    0.0005224300
  -0.0011643200   -0.0006259700    0.0005350500
   0.0009587200   -0.0001335200    0.0006578500
   0.0001257600   -0.0012041800    0.0011902400
   0.0001175900    0.0001261700   -0.0003411100