phonopy:
  version: "2.21.2"
  frequency_unit_conversion_factor: 15.633302
  symmetry_tolerance: 1.00000e-05
  configuration:
    force_constants: "WRITE"
    dim: "2 0 0 0 1 0 0 0 2"
    full_force_constants: ".TRUE."

physical_unit:
  atomic_mass: "AMU"
  length: "angstrom"
  force_constants: "eV/angstrom^2"

space_group:
  type: "Pbca"
  number: 61
  Hall_symbol: "-P 2ac 2ab"

supercell_matrix:
- [   2,   0,   0 ]
- [   0,   1,   0 ]
- [   0,   0,   2 ]

primitive_cell:
  lattice:
  - [     5.129134370000000,     0.000000000000000,     0.000000000000000 ] # a
  - [     0.000000000000000,     9.183258130000000,     0.000000000000000 ] # b
  - [     0.000000000000000,     0.000000000000000,     5.448909210000000 ] # c
  points:
  - symbol: O  # 1
    coordinates: [  0.464882270000000,  0.269983390000000,  0.390950950000000 ]
    mass: 15.999400
  - symbol: O  # 2
    coordinates: [  0.964882270000000,  0.230016610000000,  0.609049050000000 ]
    mass: 15.999400
  - symbol: O  # 3
    coordinates: [  0.035117730000000,  0.730016610000000,  0.890950950000000 ]
    mass: 15.999400
  - symbol: O  # 4
    coordinates: [  0.535117730000000,  0.769983390000000,  0.109049050000000 ]
    mass: 15.999400
  - symbol: O  # 5
    coordinates: [  0.535117730000000,  0.730016610000000,  0.609049050000000 ]
    mass: 15.999400
  - symbol: O  # 6
    coordinates: [  0.035117730000000,  0.769983390000000,  0.390950950000000 ]
    mass: 15.999400
  - symbol: O  # 7
    coordinates: [  0.964882270000000,  0.269983390000000,  0.109049050000000 ]
    mass: 15.999400
  - symbol: O  # 8
    coordinates: [  0.464882270000000,  0.230016610000000,  0.890950950000000 ]
    mass: 15.999400
  - symbol: O  # 9
    coordinates: [  0.815457840000000,  0.010363500000000,  0.851439250000000 ]
    mass: 15.999400
  - symbol: O  # 10
    coordinates: [  0.315457840000000,  0.489636500000000,  0.148560750000000 ]
    mass: 15.999400
  - symbol: O  # 11
    coordinates: [  0.684542160000000,  0.989636500000000,  0.351439250000000 ]
    mass: 15.999400
  - symbol: O  # 12
    coordinates: [  0.184542160000000,  0.510363500000000,  0.648560750000000 ]
    mass: 15.999400
  - symbol: O  # 13
    coordinates: [  0.184542160000000,  0.989636500000000,  0.148560750000000 ]
    mass: 15.999400
  - symbol: O  # 14
    coordinates: [  0.684542160000000,  0.510363500000000,  0.851439250000000 ]
    mass: 15.999400
  - symbol: O  # 15
    coordinates: [  0.315457840000000,  0.010363500000000,  0.648560750000000 ]
    mass: 15.999400
  - symbol: O  # 16
    coordinates: [  0.815457840000000,  0.489636500000000,  0.351439250000000 ]
    mass: 15.999400
  - symbol: Ti # 17
    coordinates: [  0.138383230000000,  0.371065970000000,  0.404328200000000 ]
    mass: 47.867000
  - symbol: Ti # 18
    coordinates: [  0.638383230000000,  0.128934030000000,  0.595671800000000 ]
    mass: 47.867000
  - symbol: Ti # 19
    coordinates: [  0.361616770000000,  0.628934030000000,  0.904328200000000 ]
    mass: 47.867000
  - symbol: Ti # 20
    coordinates: [  0.861616770000000,  0.871065970000000,  0.095671800000000 ]
    mass: 47.867000
  - symbol: Ti # 21
    coordinates: [  0.861616770000000,  0.628934030000000,  0.595671800000000 ]
    mass: 47.867000
  - symbol: Ti # 22
    coordinates: [  0.361616770000000,  0.871065970000000,  0.404328200000000 ]
    mass: 47.867000
  - symbol: Ti # 23
    coordinates: [  0.638383230000000,  0.371065970000000,  0.095671800000000 ]
    mass: 47.867000
  - symbol: Ti # 24
    coordinates: [  0.138383230000000,  0.128934030000000,  0.904328200000000 ]
    mass: 47.867000
  reciprocal_lattice: # without 2pi
  - [     0.194964671982263,     0.000000000000000,     0.000000000000000 ] # a*
  - [     0.000000000000000,     0.108893813703568,     0.000000000000000 ] # b*
  - [     0.000000000000000,     0.000000000000000,     0.183522969728468 ] # c*

unit_cell:
  lattice:
  - [     5.129134370000000,     0.000000000000000,     0.000000000000000 ] # a
  - [     0.000000000000000,     9.183258130000000,     0.000000000000000 ] # b
  - [     0.000000000000000,     0.000000000000000,     5.448909210000000 ] # c
  points:
  - symbol: O  # 1
    coordinates: [  0.464882270000000,  0.269983390000000,  0.390950950000000 ]
    mass: 15.999400
    reduced_to: 1
  - symbol: O  # 2
    coordinates: [  0.964882270000000,  0.230016610000000,  0.609049050000000 ]
    mass: 15.999400
    reduced_to: 2
  - symbol: O  # 3
    coordinates: [  0.035117730000000,  0.730016610000000,  0.890950950000000 ]
    mass: 15.999400
    reduced_to: 3
  - symbol: O  # 4
    coordinates: [  0.535117730000000,  0.769983390000000,  0.109049050000000 ]
    mass: 15.999400
    reduced_to: 4
  - symbol: O  # 5
    coordinates: [  0.535117730000000,  0.730016610000000,  0.609049050000000 ]
    mass: 15.999400
    reduced_to: 5
  - symbol: O  # 6
    coordinates: [  0.035117730000000,  0.769983390000000,  0.390950950000000 ]
    mass: 15.999400
    reduced_to: 6
  - symbol: O  # 7
    coordinates: [  0.964882270000000,  0.269983390000000,  0.109049050000000 ]
    mass: 15.999400
    reduced_to: 7
  - symbol: O  # 8
    coordinates: [  0.464882270000000,  0.230016610000000,  0.890950950000000 ]
    mass: 15.999400
    reduced_to: 8
  - symbol: O  # 9
    coordinates: [  0.815457840000000,  0.010363500000000,  0.851439250000000 ]
    mass: 15.999400
    reduced_to: 9
  - symbol: O  # 10
    coordinates: [  0.315457840000000,  0.489636500000000,  0.148560750000000 ]
    mass: 15.999400
    reduced_to: 10
  - symbol: O  # 11
    coordinates: [  0.684542160000000,  0.989636500000000,  0.351439250000000 ]
    mass: 15.999400
    reduced_to: 11
  - symbol: O  # 12
    coordinates: [  0.184542160000000,  0.510363500000000,  0.648560750000000 ]
    mass: 15.999400
    reduced_to: 12
  - symbol: O  # 13
    coordinates: [  0.184542160000000,  0.989636500000000,  0.148560750000000 ]
    mass: 15.999400
    reduced_to: 13
  - symbol: O  # 14
    coordinates: [  0.684542160000000,  0.510363500000000,  0.851439250000000 ]
    mass: 15.999400
    reduced_to: 14
  - symbol: O  # 15
    coordinates: [  0.315457840000000,  0.010363500000000,  0.648560750000000 ]
    mass: 15.999400
    reduced_to: 15
  - symbol: O  # 16
    coordinates: [  0.815457840000000,  0.489636500000000,  0.351439250000000 ]
    mass: 15.999400
    reduced_to: 16
  - symbol: Ti # 17
    coordinates: [  0.138383230000000,  0.371065970000000,  0.404328200000000 ]
    mass: 47.867000
    reduced_to: 17
  - symbol: Ti # 18
    coordinates: [  0.638383230000000,  0.128934030000000,  0.595671800000000 ]
    mass: 47.867000
    reduced_to: 18
  - symbol: Ti # 19
    coordinates: [  0.361616770000000,  0.628934030000000,  0.904328200000000 ]
    mass: 47.867000
    reduced_to: 19
  - symbol: Ti # 20
    coordinates: [  0.861616770000000,  0.871065970000000,  0.095671800000000 ]
    mass: 47.867000
    reduced_to: 20
  - symbol: Ti # 21
    coordinates: [  0.861616770000000,  0.628934030000000,  0.595671800000000 ]
    mass: 47.867000
    reduced_to: 21
  - symbol: Ti # 22
    coordinates: [  0.361616770000000,  0.871065970000000,  0.404328200000000 ]
    mass: 47.867000
    reduced_to: 22
  - symbol: Ti # 23
    coordinates: [  0.638383230000000,  0.371065970000000,  0.095671800000000 ]
    mass: 47.867000
    reduced_to: 23
  - symbol: Ti # 24
    coordinates: [  0.138383230000000,  0.128934030000000,  0.904328200000000 ]
    mass: 47.867000
    reduced_to: 24

supercell:
  lattice:
  - [    10.258268740000000,     0.000000000000000,     0.000000000000000 ] # a
  - [     0.000000000000000,     9.183258130000000,     0.000000000000000 ] # b
  - [     0.000000000000000,     0.000000000000000,    10.897818420000000 ] # c
  points:
  - symbol: O  # 1
    coordinates: [  0.232441135000000,  0.269983390000000,  0.195475475000000 ]
    mass: 15.999400
    reduced_to: 1
  - symbol: O  # 2
    coordinates: [  0.732441135000000,  0.269983390000000,  0.195475475000000 ]
    mass: 15.999400
    reduced_to: 1
  - symbol: O  # 3
    coordinates: [  0.232441135000000,  0.269983390000000,  0.695475475000000 ]
    mass: 15.999400
    reduced_to: 1
  - symbol: O  # 4
    coordinates: [  0.732441135000000,  0.269983390000000,  0.695475475000000 ]
    mass: 15.999400
    reduced_to: 1
  - symbol: O  # 5
    coordinates: [  0.482441135000000,  0.230016610000000,  0.304524525000000 ]
    mass: 15.999400
    reduced_to: 5
  - symbol: O  # 6
    coordinates: [  0.982441135000000,  0.230016610000000,  0.304524525000000 ]
    mass: 15.999400
    reduced_to: 5
  - symbol: O  # 7
    coordinates: [  0.482441135000000,  0.230016610000000,  0.804524525000000 ]
    mass: 15.999400
    reduced_to: 5
  - symbol: O  # 8
    coordinates: [  0.982441135000000,  0.230016610000000,  0.804524525000000 ]
    mass: 15.999400
    reduced_to: 5
  - symbol: O  # 9
    coordinates: [  0.017558865000000,  0.730016610000000,  0.445475475000000 ]
    mass: 15.999400
    reduced_to: 9
  - symbol: O  # 10
    coordinates: [  0.517558865000000,  0.730016610000000,  0.445475475000000 ]
    mass: 15.999400
    reduced_to: 9
  - symbol: O  # 11
    coordinates: [  0.017558865000000,  0.730016610000000,  0.945475475000000 ]
    mass: 15.999400
    reduced_to: 9
  - symbol: O  # 12
    coordinates: [  0.517558865000000,  0.730016610000000,  0.945475475000000 ]
    mass: 15.999400
    reduced_to: 9
  - symbol: O  # 13
    coordinates: [  0.267558865000000,  0.769983390000000,  0.054524525000000 ]
    mass: 15.999400
    reduced_to: 13
  - symbol: O  # 14
    coordinates: [  0.767558865000000,  0.769983390000000,  0.054524525000000 ]
    mass: 15.999400
    reduced_to: 13
  - symbol: O  # 15
    coordinates: [  0.267558865000000,  0.769983390000000,  0.554524525000000 ]
    mass: 15.999400
    reduced_to: 13
  - symbol: O  # 16
    coordinates: [  0.767558865000000,  0.769983390000000,  0.554524525000000 ]
    mass: 15.999400
    reduced_to: 13
  - symbol: O  # 17
    coordinates: [  0.267558865000000,  0.730016610000000,  0.304524525000000 ]
    mass: 15.999400
    reduced_to: 17
  - symbol: O  # 18
    coordinates: [  0.767558865000000,  0.730016610000000,  0.304524525000000 ]
    mass: 15.999400
    reduced_to: 17
  - symbol: O  # 19
    coordinates: [  0.267558865000000,  0.730016610000000,  0.804524525000000 ]
    mass: 15.999400
    reduced_to: 17
  - symbol: O  # 20
    coordinates: [  0.767558865000000,  0.730016610000000,  0.804524525000000 ]
    mass: 15.999400
    reduced_to: 17
  - symbol: O  # 21
    coordinates: [  0.017558865000000,  0.769983390000000,  0.195475475000000 ]
    mass: 15.999400
    reduced_to: 21
  - symbol: O  # 22
    coordinates: [  0.517558865000000,  0.769983390000000,  0.195475475000000 ]
    mass: 15.999400
    reduced_to: 21
  - symbol: O  # 23
    coordinates: [  0.017558865000000,  0.769983390000000,  0.695475475000000 ]
    mass: 15.999400
    reduced_to: 21
  - symbol: O  # 24
    coordinates: [  0.517558865000000,  0.769983390000000,  0.695475475000000 ]
    mass: 15.999400
    reduced_to: 21
  - symbol: O  # 25
    coordinates: [  0.482441135000000,  0.269983390000000,  0.054524525000000 ]
    mass: 15.999400
    reduced_to: 25
  - symbol: O  # 26
    coordinates: [  0.982441135000000,  0.269983390000000,  0.054524525000000 ]
    mass: 15.999400
    reduced_to: 25
  - symbol: O  # 27
    coordinates: [  0.482441135000000,  0.269983390000000,  0.554524525000000 ]
    mass: 15.999400
    reduced_to: 25
  - symbol: O  # 28
    coordinates: [  0.982441135000000,  0.269983390000000,  0.554524525000000 ]
    mass: 15.999400
    reduced_to: 25
  - symbol: O  # 29
    coordinates: [  0.232441135000000,  0.230016610000000,  0.445475475000000 ]
    mass: 15.999400
    reduced_to: 29
  - symbol: O  # 30
    coordinates: [  0.732441135000000,  0.230016610000000,  0.445475475000000 ]
    mass: 15.999400
    reduced_to: 29
  - symbol: O  # 31
    coordinates: [  0.232441135000000,  0.230016610000000,  0.945475475000000 ]
    mass: 15.999400
    reduced_to: 29
  - symbol: O  # 32
    coordinates: [  0.732441135000000,  0.230016610000000,  0.945475475000000 ]
    mass: 15.999400
    reduced_to: 29
  - symbol: O  # 33
    coordinates: [  0.407728920000000,  0.010363500000000,  0.425719625000000 ]
    mass: 15.999400
    reduced_to: 33
  - symbol: O  # 34
    coordinates: [  0.907728920000000,  0.010363500000000,  0.425719625000000 ]
    mass: 15.999400
    reduced_to: 33
  - symbol: O  # 35
    coordinates: [  0.407728920000000,  0.010363500000000,  0.925719625000000 ]
    mass: 15.999400
    reduced_to: 33
  - symbol: O  # 36
    coordinates: [  0.907728920000000,  0.010363500000000,  0.925719625000000 ]
    mass: 15.999400
    reduced_to: 33
  - symbol: O  # 37
    coordinates: [  0.157728920000000,  0.489636500000000,  0.074280375000000 ]
    mass: 15.999400
    reduced_to: 37
  - symbol: O  # 38
    coordinates: [  0.657728920000000,  0.489636500000000,  0.074280375000000 ]
    mass: 15.999400
    reduced_to: 37
  - symbol: O  # 39
    coordinates: [  0.157728920000000,  0.489636500000000,  0.574280375000000 ]
    mass: 15.999400
    reduced_to: 37
  - symbol: O  # 40
    coordinates: [  0.657728920000000,  0.489636500000000,  0.574280375000000 ]
    mass: 15.999400
    reduced_to: 37
  - symbol: O  # 41
    coordinates: [  0.342271080000000,  0.989636500000000,  0.175719625000000 ]
    mass: 15.999400
    reduced_to: 41
  - symbol: O  # 42
    coordinates: [  0.842271080000000,  0.989636500000000,  0.175719625000000 ]
    mass: 15.999400
    reduced_to: 41
  - symbol: O  # 43
    coordinates: [  0.342271080000000,  0.989636500000000,  0.675719625000000 ]
    mass: 15.999400
    reduced_to: 41
  - symbol: O  # 44
    coordinates: [  0.842271080000000,  0.989636500000000,  0.675719625000000 ]
    mass: 15.999400
    reduced_to: 41
  - symbol: O  # 45
    coordinates: [  0.092271080000000,  0.510363500000000,  0.324280375000000 ]
    mass: 15.999400
    reduced_to: 45
  - symbol: O  # 46
    coordinates: [  0.592271080000000,  0.510363500000000,  0.324280375000000 ]
    mass: 15.999400
    reduced_to: 45
  - symbol: O  # 47
    coordinates: [  0.092271080000000,  0.510363500000000,  0.824280375000000 ]
    mass: 15.999400
    reduced_to: 45
  - symbol: O  # 48
    coordinates: [  0.592271080000000,  0.510363500000000,  0.824280375000000 ]
    mass: 15.999400
    reduced_to: 45
  - symbol: O  # 49
    coordinates: [  0.092271080000000,  0.989636500000000,  0.074280375000000 ]
    mass: 15.999400
    reduced_to: 49
  - symbol: O  # 50
    coordinates: [  0.592271080000000,  0.989636500000000,  0.074280375000000 ]
    mass: 15.999400
    reduced_to: 49
  - symbol: O  # 51
    coordinates: [  0.092271080000000,  0.989636500000000,  0.574280375000000 ]
    mass: 15.999400
    reduced_to: 49
  - symbol: O  # 52
    coordinates: [  0.592271080000000,  0.989636500000000,  0.574280375000000 ]
    mass: 15.999400
    reduced_to: 49
  - symbol: O  # 53
    coordinates: [  0.342271080000000,  0.510363500000000,  0.425719625000000 ]
    mass: 15.999400
    reduced_to: 53
  - symbol: O  # 54
    coordinates: [  0.842271080000000,  0.510363500000000,  0.425719625000000 ]
    mass: 15.999400
    reduced_to: 53
  - symbol: O  # 55
    coordinates: [  0.342271080000000,  0.510363500000000,  0.925719625000000 ]
    mass: 15.999400
    reduced_to: 53
  - symbol: O  # 56
    coordinates: [  0.842271080000000,  0.510363500000000,  0.925719625000000 ]
    mass: 15.999400
    reduced_to: 53
  - symbol: O  # 57
    coordinates: [  0.157728920000000,  0.010363500000000,  0.324280375000000 ]
    mass: 15.999400
    reduced_to: 57
  - symbol: O  # 58
    coordinates: [  0.657728920000000,  0.010363500000000,  0.324280375000000 ]
    mass: 15.999400
    reduced_to: 57
  - symbol: O  # 59
    coordinates: [  0.157728920000000,  0.010363500000000,  0.824280375000000 ]
    mass: 15.999400
    reduced_to: 57
  - symbol: O  # 60
    coordinates: [  0.657728920000000,  0.010363500000000,  0.824280375000000 ]
    mass: 15.999400
    reduced_to: 57
  - symbol: O  # 61
    coordinates: [  0.407728920000000,  0.489636500000000,  0.175719625000000 ]
    mass: 15.999400
    reduced_to: 61
  - symbol: O  # 62
    coordinates: [  0.907728920000000,  0.489636500000000,  0.175719625000000 ]
    mass: 15.999400
    reduced_to: 61
  - symbol: O  # 63
    coordinates: [  0.407728920000000,  0.489636500000000,  0.675719625000000 ]
    mass: 15.999400
    reduced_to: 61
  - symbol: O  # 64
    coordinates: [  0.907728920000000,  0.489636500000000,  0.675719625000000 ]
    mass: 15.999400
    reduced_to: 61
  - symbol: Ti # 65
    coordinates: [  0.069191615000000,  0.371065970000000,  0.202164100000000 ]
    mass: 47.867000
    reduced_to: 65
  - symbol: Ti # 66
    coordinates: [  0.569191615000000,  0.371065970000000,  0.202164100000000 ]
    mass: 47.867000
    reduced_to: 65
  - symbol: Ti # 67
    coordinates: [  0.069191615000000,  0.371065970000000,  0.702164100000000 ]
    mass: 47.867000
    reduced_to: 65
  - symbol: Ti # 68
    coordinates: [  0.569191615000000,  0.371065970000000,  0.702164100000000 ]
    mass: 47.867000
    reduced_to: 65
  - symbol: Ti # 69
    coordinates: [  0.319191615000000,  0.128934030000000,  0.297835900000000 ]
    mass: 47.867000
    reduced_to: 69
  - symbol: Ti # 70
    coordinates: [  0.819191615000000,  0.128934030000000,  0.297835900000000 ]
    mass: 47.867000
    reduced_to: 69
  - symbol: Ti # 71
    coordinates: [  0.319191615000000,  0.128934030000000,  0.797835900000000 ]
    mass: 47.867000
    reduced_to: 69
  - symbol: Ti # 72
    coordinates: [  0.819191615000000,  0.128934030000000,  0.797835900000000 ]
    mass: 47.867000
    reduced_to: 69
  - symbol: Ti # 73
    coordinates: [  0.180808385000000,  0.628934030000000,  0.452164100000000 ]
    mass: 47.867000
    reduced_to: 73
  - symbol: Ti # 74
    coordinates: [  0.680808385000000,  0.628934030000000,  0.452164100000000 ]
    mass: 47.867000
    reduced_to: 73
  - symbol: Ti # 75
    coordinates: [  0.180808385000000,  0.628934030000000,  0.952164100000000 ]
    mass: 47.867000
    reduced_to: 73
  - symbol: Ti # 76
    coordinates: [  0.680808385000000,  0.628934030000000,  0.952164100000000 ]
    mass: 47.867000
    reduced_to: 73
  - symbol: Ti # 77
    coordinates: [  0.430808385000000,  0.871065970000000,  0.047835900000000 ]
    mass: 47.867000
    reduced_to: 77
  - symbol: Ti # 78
    coordinates: [  0.930808385000000,  0.871065970000000,  0.047835900000000 ]
    mass: 47.867000
    reduced_to: 77
  - symbol: Ti # 79
    coordinates: [  0.430808385000000,  0.871065970000000,  0.547835900000000 ]
    mass: 47.867000
    reduced_to: 77
  - symbol: Ti # 80
    coordinates: [  0.930808385000000,  0.871065970000000,  0.547835900000000 ]
    mass: 47.867000
    reduced_to: 77
  - symbol: Ti # 81
    coordinates: [  0.430808385000000,  0.628934030000000,  0.297835900000000 ]
    mass: 47.867000
    reduced_to: 81
  - symbol: Ti # 82
    coordinates: [  0.930808385000000,  0.628934030000000,  0.297835900000000 ]
    mass: 47.867000
    reduced_to: 81
  - symbol: Ti # 83
    coordinates: [  0.430808385000000,  0.628934030000000,  0.797835900000000 ]
    mass: 47.867000
    reduced_to: 81
  - symbol: Ti # 84
    coordinates: [  0.930808385000000,  0.628934030000000,  0.797835900000000 ]
    mass: 47.867000
    reduced_to: 81
  - symbol: Ti # 85
    coordinates: [  0.180808385000000,  0.871065970000000,  0.202164100000000 ]
    mass: 47.867000
    reduced_to: 85
  - symbol: Ti # 86
    coordinates: [  0.680808385000000,  0.871065970000000,  0.202164100000000 ]
    mass: 47.867000
    reduced_to: 85
  - symbol: Ti # 87
    coordinates: [  0.180808385000000,  0.871065970000000,  0.702164100000000 ]
    mass: 47.867000
    reduced_to: 85
  - symbol: Ti # 88
    coordinates: [  0.680808385000000,  0.871065970000000,  0.702164100000000 ]
    mass: 47.867000
    reduced_to: 85
  - symbol: Ti # 89
    coordinates: [  0.319191615000000,  0.371065970000000,  0.047835900000000 ]
    mass: 47.867000
    reduced_to: 89
  - symbol: Ti # 90
    coordinates: [  0.819191615000000,  0.371065970000000,  0.047835900000000 ]
    mass: 47.867000
    reduced_to: 89
  - symbol: Ti # 91
    coordinates: [  0.319191615000000,  0.371065970000000,  0.547835900000000 ]
    mass: 47.867000
    reduced_to: 89
  - symbol: Ti # 92
    coordinates: [  0.819191615000000,  0.371065970000000,  0.547835900000000 ]
    mass: 47.867000
    reduced_to: 89
  - symbol: Ti # 93
    coordinates: [  0.069191615000000,  0.128934030000000,  0.452164100000000 ]
    mass: 47.867000
    reduced_to: 93
  - symbol: Ti # 94
    coordinates: [  0.569191615000000,  0.128934030000000,  0.452164100000000 ]
    mass: 47.867000
    reduced_to: 93
  - symbol: Ti # 95
    coordinates: [  0.069191615000000,  0.128934030000000,  0.952164100000000 ]
    mass: 47.867000
    reduced_to: 93
  - symbol: Ti # 96
    coordinates: [  0.569191615000000,  0.128934030000000,  0.952164100000000 ]
    mass: 47.867000
    reduced_to: 93
