# epsilon and Z* of atoms 1 5 7 8
   7.90688984    0.00000000    0.00000000    0.00000000    7.90688984    0.00000000    0.00000000    0.00000000    6.09708896 
  -2.22613743    0.00000000    0.00000000    0.00000000   -4.11952740    0.00000000    0.00000000    0.00000000   -2.49513534 
   5.53535878    0.00000000    0.00000000    0.00000000    5.53535878    0.00000000    0.00000000    0.00000000    2.87694057 
   3.82198678    0.00000000    0.00000000    0.00000000    3.82198679    0.00000000    0.00000000    0.00000000    5.98646012 
  -2.20137470    0.00000000    0.00000000    0.00000000   -2.20137469    0.00000000    0.00000000    0.00000000   -1.75979989 
