natom:  144
displacements:
- atom:    1
  displacement:
    [   0.0100000000000000,  0.0000000000000000,  0.0000000000000000 ]
- atom:    1
  displacement:
    [   0.0000000000000000,  0.0100000000000000,  0.0000000000000000 ]
- atom:    1
  displacement:
    [   0.0000000000000000,  0.0000000000000000,  0.0100000000000000 ]
- atom:    1
  displacement:
    [   0.0000000000000000,  0.0000000000000000, -0.0100000000000000 ]
- atom:   73
  displacement:
    [   0.0100000000000000,  0.0000000000000000,  0.0000000000000000 ]
- atom:   73
  displacement:
    [   0.0000000000000000,  0.0000000000000000,  0.0100000000000000 ]
- atom:   73
  displacement:
    [   0.0000000000000000,  0.0000000000000000, -0.0100000000000000 ]
- atom:  109
  displacement:
    [   0.0100000000000000,  0.0000000000000000,  0.0000000000000000 ]
- atom:  109
  displacement:
    [   0.0000000000000000,  0.0000000000000000,  0.0100000000000000 ]
- atom:  127
  displacement:
    [   0.0100000000000000,  0.0000000000000000,  0.0000000000000000 ]
- atom:  127
  displacement:
    [   0.0000000000000000,  0.0000000000000000,  0.0100000000000000 ]
lattice:
- [    11.8080726600000006,     0.0000000000000000,     0.0000000000000000 ] # a
- [     0.0000000000000000,    11.8080726600000006,     0.0000000000000000 ] # b
- [     0.0000000000000000,     0.0000000000000000,    19.0227463599999993 ] # c
atoms:
- symbol: O  # 1
  position: [  0.1666666666666667,  0.0000000000000000,  0.0741132600000000 ]
  mass: 15.999400
- symbol: O  # 2
  position: [  0.5000000000000000,  0.0000000000000000,  0.0741132600000000 ]
  mass: 15.999400
- symbol: O  # 3
  position: [  0.8333333333333334,  0.0000000000000000,  0.0741132600000000 ]
  mass: 15.999400
- symbol: O  # 4
  position: [  0.1666666666666667,  0.3333333333333333,  0.0741132600000000 ]
  mass: 15.999400
- symbol: O  # 5
  position: [  0.5000000000000000,  0.3333333333333333,  0.0741132600000000 ]
  mass: 15.999400
- symbol: O  # 6
  position: [  0.8333333333333334,  0.3333333333333333,  0.0741132600000000 ]
  mass: 15.999400
- symbol: O  # 7
  position: [  0.1666666666666667,  0.6666666666666666,  0.0741132600000000 ]
  mass: 15.999400
- symbol: O  # 8
  position: [  0.5000000000000000,  0.6666666666666666,  0.0741132600000000 ]
  mass: 15.999400
- symbol: O  # 9
  position: [  0.8333333333333334,  0.6666666666666666,  0.0741132600000000 ]
  mass: 15.999400
- symbol: O  # 10
  position: [  0.1666666666666667,  0.0000000000000000,  0.5741132600000000 ]
  mass: 15.999400
- symbol: O  # 11
  position: [  0.5000000000000000,  0.0000000000000000,  0.5741132600000000 ]
  mass: 15.999400
- symbol: O  # 12
  position: [  0.8333333333333334,  0.0000000000000000,  0.5741132600000000 ]
  mass: 15.999400
- symbol: O  # 13
  position: [  0.1666666666666667,  0.3333333333333333,  0.5741132600000000 ]
  mass: 15.999400
- symbol: O  # 14
  position: [  0.5000000000000000,  0.3333333333333333,  0.5741132600000000 ]
  mass: 15.999400
- symbol: O  # 15
  position: [  0.8333333333333334,  0.3333333333333333,  0.5741132600000000 ]
  mass: 15.999400
- symbol: O  # 16
  position: [  0.1666666666666667,  0.6666666666666666,  0.5741132600000000 ]
  mass: 15.999400
- symbol: O  # 17
  position: [  0.5000000000000000,  0.6666666666666666,  0.5741132600000000 ]
  mass: 15.999400
- symbol: O  # 18
  position: [  0.8333333333333334,  0.6666666666666666,  0.5741132600000000 ]
  mass: 15.999400
- symbol: O  # 19
  position: [  0.0000000000000000,  0.1666666666666667,  0.0741132600000000 ]
  mass: 15.999400
- symbol: O  # 20
  position: [  0.3333333333333333,  0.1666666666666667,  0.0741132600000000 ]
  mass: 15.999400
- symbol: O  # 21
  position: [  0.6666666666666666,  0.1666666666666667,  0.0741132600000000 ]
  mass: 15.999400
- symbol: O  # 22
  position: [  0.0000000000000000,  0.5000000000000000,  0.0741132600000000 ]
  mass: 15.999400
- symbol: O  # 23
  position: [  0.3333333333333333,  0.5000000000000000,  0.0741132600000000 ]
  mass: 15.999400
- symbol: O  # 24
  position: [  0.6666666666666666,  0.5000000000000000,  0.0741132600000000 ]
  mass: 15.999400
- symbol: O  # 25
  position: [  0.0000000000000000,  0.8333333333333334,  0.0741132600000000 ]
  mass: 15.999400
- symbol: O  # 26
  position: [  0.3333333333333333,  0.8333333333333334,  0.0741132600000000 ]
  mass: 15.999400
- symbol: O  # 27
  position: [  0.6666666666666666,  0.8333333333333334,  0.0741132600000000 ]
  mass: 15.999400
- symbol: O  # 28
  position: [  0.0000000000000000,  0.1666666666666667,  0.5741132600000000 ]
  mass: 15.999400
- symbol: O  # 29
  position: [  0.3333333333333333,  0.1666666666666667,  0.5741132600000000 ]
  mass: 15.999400
- symbol: O  # 30
  position: [  0.6666666666666666,  0.1666666666666667,  0.5741132600000000 ]
  mass: 15.999400
- symbol: O  # 31
  position: [  0.0000000000000000,  0.5000000000000000,  0.5741132600000000 ]
  mass: 15.999400
- symbol: O  # 32
  position: [  0.3333333333333333,  0.5000000000000000,  0.5741132600000000 ]
  mass: 15.999400
- symbol: O  # 33
  position: [  0.6666666666666666,  0.5000000000000000,  0.5741132600000000 ]
  mass: 15.999400
- symbol: O  # 34
  position: [  0.0000000000000000,  0.8333333333333334,  0.5741132600000000 ]
  mass: 15.999400
- symbol: O  # 35
  position: [  0.3333333333333333,  0.8333333333333334,  0.5741132600000000 ]
  mass: 15.999400
- symbol: O  # 36
  position: [  0.6666666666666666,  0.8333333333333334,  0.5741132600000000 ]
  mass: 15.999400
- symbol: O  # 37
  position: [  0.1666666666666667,  0.0000000000000000,  0.4258867400000000 ]
  mass: 15.999400
- symbol: O  # 38
  position: [  0.5000000000000000,  0.0000000000000000,  0.4258867400000000 ]
  mass: 15.999400
- symbol: O  # 39
  position: [  0.8333333333333334,  0.0000000000000000,  0.4258867400000000 ]
  mass: 15.999400
- symbol: O  # 40
  position: [  0.1666666666666667,  0.3333333333333333,  0.4258867400000000 ]
  mass: 15.999400
- symbol: O  # 41
  position: [  0.5000000000000000,  0.3333333333333333,  0.4258867400000000 ]
  mass: 15.999400
- symbol: O  # 42
  position: [  0.8333333333333334,  0.3333333333333333,  0.4258867400000000 ]
  mass: 15.999400
- symbol: O  # 43
  position: [  0.1666666666666667,  0.6666666666666666,  0.4258867400000000 ]
  mass: 15.999400
- symbol: O  # 44
  position: [  0.5000000000000000,  0.6666666666666666,  0.4258867400000000 ]
  mass: 15.999400
- symbol: O  # 45
  position: [  0.8333333333333334,  0.6666666666666666,  0.4258867400000000 ]
  mass: 15.999400
- symbol: O  # 46
  position: [  0.1666666666666667,  0.0000000000000000,  0.9258867399999999 ]
  mass: 15.999400
- symbol: O  # 47
  position: [  0.5000000000000000,  0.0000000000000000,  0.9258867399999999 ]
  mass: 15.999400
- symbol: O  # 48
  position: [  0.8333333333333334,  0.0000000000000000,  0.9258867399999999 ]
  mass: 15.999400
- symbol: O  # 49
  position: [  0.1666666666666667,  0.3333333333333333,  0.9258867399999999 ]
  mass: 15.999400
- symbol: O  # 50
  position: [  0.5000000000000000,  0.3333333333333333,  0.9258867399999999 ]
  mass: 15.999400
- symbol: O  # 51
  position: [  0.8333333333333334,  0.3333333333333333,  0.9258867399999999 ]
  mass: 15.999400
- symbol: O  # 52
  position: [  0.1666666666666667,  0.6666666666666666,  0.9258867399999999 ]
  mass: 15.999400
- symbol: O  # 53
  position: [  0.5000000000000000,  0.6666666666666666,  0.9258867399999999 ]
  mass: 15.999400
- symbol: O  # 54
  position: [  0.8333333333333334,  0.6666666666666666,  0.9258867399999999 ]
  mass: 15.999400
- symbol: O  # 55
  position: [  0.0000000000000000,  0.1666666666666667,  0.4258867400000000 ]
  mass: 15.999400
- symbol: O  # 56
  position: [  0.3333333333333333,  0.1666666666666667,  0.4258867400000000 ]
  mass: 15.999400
- symbol: O  # 57
  position: [  0.6666666666666666,  0.1666666666666667,  0.4258867400000000 ]
  mass: 15.999400
- symbol: O  # 58
  position: [  0.0000000000000000,  0.5000000000000000,  0.4258867400000000 ]
  mass: 15.999400
- symbol: O  # 59
  position: [  0.3333333333333333,  0.5000000000000000,  0.4258867400000000 ]
  mass: 15.999400
- symbol: O  # 60
  position: [  0.6666666666666666,  0.5000000000000000,  0.4258867400000000 ]
  mass: 15.999400
- symbol: O  # 61
  position: [  0.0000000000000000,  0.8333333333333334,  0.4258867400000000 ]
  mass: 15.999400
- symbol: O  # 62
  position: [  0.3333333333333333,  0.8333333333333334,  0.4258867400000000 ]
  mass: 15.999400
- symbol: O  # 63
  position: [  0.6666666666666666,  0.8333333333333334,  0.4258867400000000 ]
  mass: 15.999400
- symbol: O  # 64
  position: [  0.0000000000000000,  0.1666666666666667,  0.9258867399999999 ]
  mass: 15.999400
- symbol: O  # 65
  position: [  0.3333333333333333,  0.1666666666666667,  0.9258867399999999 ]
  mass: 15.999400
- symbol: O  # 66
  position: [  0.6666666666666666,  0.1666666666666667,  0.9258867399999999 ]
  mass: 15.999400
- symbol: O  # 67
  position: [  0.0000000000000000,  0.5000000000000000,  0.9258867399999999 ]
  mass: 15.999400
- symbol: O  # 68
  position: [  0.3333333333333333,  0.5000000000000000,  0.9258867399999999 ]
  mass: 15.999400
- symbol: O  # 69
  position: [  0.6666666666666666,  0.5000000000000000,  0.9258867399999999 ]
  mass: 15.999400
- symbol: O  # 70
  position: [  0.0000000000000000,  0.8333333333333334,  0.9258867399999999 ]
  mass: 15.999400
- symbol: O  # 71
  position: [  0.3333333333333333,  0.8333333333333334,  0.9258867399999999 ]
  mass: 15.999400
- symbol: O  # 72
  position: [  0.6666666666666666,  0.8333333333333334,  0.9258867399999999 ]
  mass: 15.999400
- symbol: Bi # 73
  position: [  0.1666666666666667,  0.1666666666666667,  0.1313240500000000 ]
  mass: 208.980400
- symbol: Bi # 74
  position: [  0.5000000000000000,  0.1666666666666667,  0.1313240500000000 ]
  mass: 208.980400
- symbol: Bi # 75
  position: [  0.8333333333333334,  0.1666666666666667,  0.1313240500000000 ]
  mass: 208.980400
- symbol: Bi # 76
  position: [  0.1666666666666667,  0.5000000000000000,  0.1313240500000000 ]
  mass: 208.980400
- symbol: Bi # 77
  position: [  0.5000000000000000,  0.5000000000000000,  0.1313240500000000 ]
  mass: 208.980400
- symbol: Bi # 78
  position: [  0.8333333333333334,  0.5000000000000000,  0.1313240500000000 ]
  mass: 208.980400
- symbol: Bi # 79
  position: [  0.1666666666666667,  0.8333333333333334,  0.1313240500000000 ]
  mass: 208.980400
- symbol: Bi # 80
  position: [  0.5000000000000000,  0.8333333333333334,  0.1313240500000000 ]
  mass: 208.980400
- symbol: Bi # 81
  position: [  0.8333333333333334,  0.8333333333333334,  0.1313240500000000 ]
  mass: 208.980400
- symbol: Bi # 82
  position: [  0.1666666666666667,  0.1666666666666667,  0.6313240500000000 ]
  mass: 208.980400
- symbol: Bi # 83
  position: [  0.5000000000000000,  0.1666666666666667,  0.6313240500000000 ]
  mass: 208.980400
- symbol: Bi # 84
  position: [  0.8333333333333334,  0.1666666666666667,  0.6313240500000000 ]
  mass: 208.980400
- symbol: Bi # 85
  position: [  0.1666666666666667,  0.5000000000000000,  0.6313240500000000 ]
  mass: 208.980400
- symbol: Bi # 86
  position: [  0.5000000000000000,  0.5000000000000000,  0.6313240500000000 ]
  mass: 208.980400
- symbol: Bi # 87
  position: [  0.8333333333333334,  0.5000000000000000,  0.6313240500000000 ]
  mass: 208.980400
- symbol: Bi # 88
  position: [  0.1666666666666667,  0.8333333333333334,  0.6313240500000000 ]
  mass: 208.980400
- symbol: Bi # 89
  position: [  0.5000000000000000,  0.8333333333333334,  0.6313240500000000 ]
  mass: 208.980400
- symbol: Bi # 90
  position: [  0.8333333333333334,  0.8333333333333334,  0.6313240500000000 ]
  mass: 208.980400
- symbol: Bi # 91
  position: [  0.1666666666666667,  0.1666666666666667,  0.3686759500000000 ]
  mass: 208.980400
- symbol: Bi # 92
  position: [  0.5000000000000000,  0.1666666666666667,  0.3686759500000000 ]
  mass: 208.980400
- symbol: Bi # 93
  position: [  0.8333333333333334,  0.1666666666666667,  0.3686759500000000 ]
  mass: 208.980400
- symbol: Bi # 94
  position: [  0.1666666666666667,  0.5000000000000000,  0.3686759500000000 ]
  mass: 208.980400
- symbol: Bi # 95
  position: [  0.5000000000000000,  0.5000000000000000,  0.3686759500000000 ]
  mass: 208.980400
- symbol: Bi # 96
  position: [  0.8333333333333334,  0.5000000000000000,  0.3686759500000000 ]
  mass: 208.980400
- symbol: Bi # 97
  position: [  0.1666666666666667,  0.8333333333333334,  0.3686759500000000 ]
  mass: 208.980400
- symbol: Bi # 98
  position: [  0.5000000000000000,  0.8333333333333334,  0.3686759500000000 ]
  mass: 208.980400
- symbol: Bi # 99
  position: [  0.8333333333333334,  0.8333333333333334,  0.3686759500000000 ]
  mass: 208.980400
- symbol: Bi # 100
  position: [  0.1666666666666667,  0.1666666666666667,  0.8686759500000000 ]
  mass: 208.980400
- symbol: Bi # 101
  position: [  0.5000000000000000,  0.1666666666666667,  0.8686759500000000 ]
  mass: 208.980400
- symbol: Bi # 102
  position: [  0.8333333333333334,  0.1666666666666667,  0.8686759500000000 ]
  mass: 208.980400
- symbol: Bi # 103
  position: [  0.1666666666666667,  0.5000000000000000,  0.8686759500000000 ]
  mass: 208.980400
- symbol: Bi # 104
  position: [  0.5000000000000000,  0.5000000000000000,  0.8686759500000000 ]
  mass: 208.980400
- symbol: Bi # 105
  position: [  0.8333333333333334,  0.5000000000000000,  0.8686759500000000 ]
  mass: 208.980400
- symbol: Bi # 106
  position: [  0.1666666666666667,  0.8333333333333334,  0.8686759500000000 ]
  mass: 208.980400
- symbol: Bi # 107
  position: [  0.5000000000000000,  0.8333333333333334,  0.8686759500000000 ]
  mass: 208.980400
- symbol: Bi # 108
  position: [  0.8333333333333334,  0.8333333333333334,  0.8686759500000000 ]
  mass: 208.980400
- symbol: Sm # 109
  position: [  0.0000000000000000,  0.0000000000000000,  0.0000000000000000 ]
  mass: 150.360000
- symbol: Sm # 110
  position: [  0.3333333333333333,  0.0000000000000000,  0.0000000000000000 ]
  mass: 150.360000
- symbol: Sm # 111
  position: [  0.6666666666666666,  0.0000000000000000,  0.0000000000000000 ]
  mass: 150.360000
- symbol: Sm # 112
  position: [  0.0000000000000000,  0.3333333333333333,  0.0000000000000000 ]
  mass: 150.360000
- symbol: Sm # 113
  position: [  0.3333333333333333,  0.3333333333333333,  0.0000000000000000 ]
  mass: 150.360000
- symbol: Sm # 114
  position: [  0.6666666666666666,  0.3333333333333333,  0.0000000000000000 ]
  mass: 150.360000
- symbol: Sm # 115
  position: [  0.0000000000000000,  0.6666666666666666,  0.0000000000000000 ]
  mass: 150.360000
- symbol: Sm # 116
  position: [  0.3333333333333333,  0.6666666666666666,  0.0000000000000000 ]
  mass: 150.360000
- symbol: Sm # 117
  position: [  0.6666666666666666,  0.6666666666666666,  0.0000000000000000 ]
  mass: 150.360000
- symbol: Sm # 118
  position: [  0.0000000000000000,  0.0000000000000000,  0.5000000000000000 ]
  mass: 150.360000
- symbol: Sm # 119
  position: [  0.3333333333333333,  0.0000000000000000,  0.5000000000000000 ]
  mass: 150.360000
- symbol: Sm # 120
  position: [  0.6666666666666666,  0.0000000000000000,  0.5000000000000000 ]
  mass: 150.360000
- symbol: Sm # 121
  position: [  0.0000000000000000,  0.3333333333333333,  0.5000000000000000 ]
  mass: 150.360000
- symbol: Sm # 122
  position: [  0.3333333333333333,  0.3333333333333333,  0.5000000000000000 ]
  mass: 150.360000
- symbol: Sm # 123
  position: [  0.6666666666666666,  0.3333333333333333,  0.5000000000000000 ]
  mass: 150.360000
- symbol: Sm # 124
  position: [  0.0000000000000000,  0.6666666666666666,  0.5000000000000000 ]
  mass: 150.360000
- symbol: Sm # 125
  position: [  0.3333333333333333,  0.6666666666666666,  0.5000000000000000 ]
  mass: 150.360000
- symbol: Sm # 126
  position: [  0.6666666666666666,  0.6666666666666666,  0.5000000000000000 ]
  mass: 150.360000
- symbol: I  # 127
  position: [  0.0000000000000000,  0.0000000000000000,  0.2500000000000000 ]
  mass: 126.904470
- symbol: I  # 128
  position: [  0.3333333333333333,  0.0000000000000000,  0.2500000000000000 ]
  mass: 126.904470
- symbol: I  # 129
  position: [  0.6666666666666666,  0.0000000000000000,  0.2500000000000000 ]
  mass: 126.904470
- symbol: I  # 130
  position: [  0.0000000000000000,  0.3333333333333333,  0.2500000000000000 ]
  mass: 126.904470
- symbol: I  # 131
  position: [  0.3333333333333333,  0.3333333333333333,  0.2500000000000000 ]
  mass: 126.904470
- symbol: I  # 132
  position: [  0.6666666666666666,  0.3333333333333333,  0.2500000000000000 ]
  mass: 126.904470
- symbol: I  # 133
  position: [  0.0000000000000000,  0.6666666666666666,  0.2500000000000000 ]
  mass: 126.904470
- symbol: I  # 134
  position: [  0.3333333333333333,  0.6666666666666666,  0.2500000000000000 ]
  mass: 126.904470
- symbol: I  # 135
  position: [  0.6666666666666666,  0.6666666666666666,  0.2500000000000000 ]
  mass: 126.904470
- symbol: I  # 136
  position: [  0.0000000000000000,  0.0000000000000000,  0.7500000000000000 ]
  mass: 126.904470
- symbol: I  # 137
  position: [  0.3333333333333333,  0.0000000000000000,  0.7500000000000000 ]
  mass: 126.904470
- symbol: I  # 138
  position: [  0.6666666666666666,  0.0000000000000000,  0.7500000000000000 ]
  mass: 126.904470
- symbol: I  # 139
  position: [  0.0000000000000000,  0.3333333333333333,  0.7500000000000000 ]
  mass: 126.904470
- symbol: I  # 140
  position: [  0.3333333333333333,  0.3333333333333333,  0.7500000000000000 ]
  mass: 126.904470
- symbol: I  # 141
  position: [  0.6666666666666666,  0.3333333333333333,  0.7500000000000000 ]
  mass: 126.904470
- symbol: I  # 142
  position: [  0.0000000000000000,  0.6666666666666666,  0.7500000000000000 ]
  mass: 126.904470
- symbol: I  # 143
  position: [  0.3333333333333333,  0.6666666666666666,  0.7500000000000000 ]
  mass: 126.904470
- symbol: I  # 144
  position: [  0.6666666666666666,  0.6666666666666666,  0.7500000000000000 ]
  mass: 126.904470