144  
11   

1    
  0.0100000000000000   0.0000000000000000   0.0000000000000000
  -0.0837406700    0.0000000000    0.0041209300
   0.0032800200    0.0000000000    0.0045363000
   0.0032632700    0.0000000000    0.0018334100
  -0.0009395900   -0.0000244700    0.0031976500
   0.0012847600    0.0015326400    0.0030414400
   0.0012864100   -0.0015264100    0.0033046700
  -0.0009395900    0.0000244700    0.0031976500
   0.0012847600   -0.0015326400    0.0030414400
   0.0012864100    0.0015264100    0.0033046700
  -0.0000431200    0.0000000000    0.0031694100
   0.0000262300    0.0000000000    0.0031833500
   0.0000275300    0.0000000000    0.0031611800
  -0.0000238600    0.0000008000    0.0031706000
   0.0000133300   -0.0000060000    0.0031827700
   0.0000130300    0.0000071400    0.0031595600
  -0.0000238600   -0.0000008000    0.0031706000
   0.0000133300    0.0000060000    0.0031827700
   0.0000130300   -0.0000071400    0.0031595600
   0.0072409800   -0.0122903000    0.0007995100
   0.0072891700    0.0124403500    0.0055504400
   0.0023020300    0.0000036600    0.0031749200
  -0.0004809600    0.0000000000    0.0026558600
  -0.0004988400    0.0000000000    0.0037018000
   0.0013020300    0.0000000000    0.0031757500
   0.0072409800    0.0122903000    0.0007995100
   0.0072891700   -0.0124403500    0.0055504400
   0.0023020300   -0.0000036600    0.0031749200
  -0.0000099200   -0.0000099200    0.0031538300
  -0.0000124300    0.0000090700    0.0031864600
   0.0000226200    0.0000005100    0.0031684700
  -0.0000136600    0.0000000000    0.0031526400
  -0.0000158800    0.0000000000    0.0031893300
   0.0000308600    0.0000000000    0.0031699000
  -0.0000099200    0.0000099200    0.0031538300
  -0.0000124300   -0.0000090700    0.0031864600
   0.0000226200   -0.0000005100    0.0031684700
  -0.0002048100    0.0000000000   -0.0031768400
   0.0001492100    0.0000000000   -0.0030194200
   0.0001503800    0.0000000000   -0.0033277200
  -0.0000200800    0.0000000100   -0.0031727300
   0.0000015300    0.0001709100   -0.0031319800
   0.0000010700   -0.0001690200   -0.0032140300
  -0.0000200800   -0.0000000100   -0.0031727300
   0.0000015300   -0.0001709100   -0.0031319800
   0.0000010700    0.0001690200   -0.0032140300
  -0.0054693800    0.0000000000   -0.0031625700
   0.0073787300    0.0000000000   -0.0085475800
   0.0073042100    0.0000000000    0.0021548000
  -0.0009882800    0.0000032400   -0.0031627000
   0.0005281500    0.0003686200   -0.0031123300
   0.0005303400   -0.0003649900   -0.0032268400
  -0.0009882800   -0.0000032400   -0.0031627000
   0.0005281500   -0.0003686200   -0.0031123300
   0.0005303400    0.0003649900   -0.0032268400
  -0.0001253700   -0.0001128300   -0.0032415300
  -0.0001254100    0.0001132500   -0.0031075900
   0.0003416700    0.0000008500   -0.0031755700
  -0.0000101200    0.0000000000   -0.0031357000
  -0.0000109800    0.0000000000   -0.0032209300
  -0.0000317200    0.0000000000   -0.0031761300
  -0.0001253700    0.0001128300   -0.0032415300
  -0.0001254100   -0.0001132500   -0.0031075900
   0.0003416700   -0.0000008500   -0.0031755700
  -0.0007439600   -0.0020685000   -0.0007497200
  -0.0007480000    0.0020977500   -0.0056042700
   0.0015530800    0.0000052800   -0.0031689700
  -0.0002439800    0.0000000000   -0.0022910300
  -0.0002463400    0.0000000000   -0.0040550100
   0.0005847500    0.0000000000   -0.0031739300
  -0.0007439600    0.0020685000   -0.0007497200
  -0.0007480000   -0.0020977500   -0.0056042700
   0.0015530800   -0.0000052800   -0.0031689700
   0.0129244100   -0.0000022300   -0.0088217600
  -0.0048302500   -0.0011964800   -0.0105328000
  -0.0048357800    0.0011792100   -0.0069765600
   0.0009011100    0.0000000000   -0.0087429700
  -0.0004136600    0.0000000000   -0.0093507500
  -0.0004238100    0.0000000000   -0.0081542500
   0.0129244100    0.0000022300   -0.0088217600
  -0.0048302500    0.0011964800   -0.0105328000
  -0.0048357800   -0.0011792100   -0.0069765600
   0.0001359200   -0.0000003800   -0.0087456100
  -0.0000702100    0.0000105800   -0.0087121700
  -0.0000718600   -0.0000129400   -0.0087781600
   0.0001438900    0.0000000000   -0.0087472600
  -0.0000736000    0.0000000000   -0.0087286400
  -0.0000736800    0.0000000000   -0.0087624300
   0.0001359200    0.0000003800   -0.0087456100
  -0.0000702100   -0.0000105800   -0.0087121700
  -0.0000718600    0.0000129400   -0.0087781600
   0.0006857700   -0.0000011000    0.0087510400
  -0.0004130500   -0.0003911900    0.0083937300
  -0.0004160500    0.0003867400    0.0091058200
   0.0001139300    0.0000000000    0.0087519700
  -0.0000258900    0.0000000000    0.0088987100
  -0.0000290700    0.0000000000    0.0086043000
   0.0006857700    0.0000011000    0.0087510400
  -0.0004130500    0.0003911900    0.0083937300
  -0.0004160500   -0.0003867400    0.0091058200
   0.0027555200   -0.0000056100    0.0087544100
  -0.0012882000   -0.0019621800    0.0096691900
  -0.0012851400    0.0019431300    0.0078434000
   0.0009076400    0.0000000000    0.0087495000
  -0.0004422600    0.0000000000    0.0090269800
  -0.0004472400    0.0000000000    0.0084728200
   0.0027555200    0.0000056100    0.0087544100
  -0.0012882000    0.0019621800    0.0096691900
  -0.0012851400   -0.0019431300    0.0078434000
   0.0128523800    0.0000000000    0.0018877300
   0.0137458800    0.0000000000   -0.0027200000
  -0.0041217500    0.0000000000   -0.0000081000
   0.0007008600    0.0024084200   -0.0014071700
   0.0007139100   -0.0024227400    0.0013832900
  -0.0013997900   -0.0000062900   -0.0000046900
   0.0007008600   -0.0024084200   -0.0014071700
   0.0007139100    0.0024227400    0.0013832900
  -0.0013997900    0.0000062900   -0.0000046900
   0.0000543200    0.0000000000    0.0001374200
   0.0000567300    0.0000000000   -0.0001274800
  -0.0001077000    0.0000000000    0.0000041500
   0.0000152500    0.0000406400    0.0000305400
   0.0000128200   -0.0000383500   -0.0000193000
  -0.0000283900   -0.0000009500    0.0000046300
   0.0000152500   -0.0000406400    0.0000305400
   0.0000128200    0.0000383500   -0.0000193000
  -0.0000283900    0.0000009500    0.0000046300
   0.0004401800    0.0000000000   -0.0015320500
   0.0004389700    0.0000000000    0.0015357700
   0.0006192200    0.0000000000    0.0000018300
  -0.0003367100    0.0001565600    0.0001172500
  -0.0003465200   -0.0001625600   -0.0001276700
   0.0003682700    0.0000002400    0.0000014600
  -0.0003367100   -0.0001565600    0.0001172500
  -0.0003465200    0.0001625600   -0.0001276700
   0.0003682700   -0.0000002400    0.0000014600
  -0.0001227800    0.0000000000    0.0000516600
  -0.0001227200    0.0000000000   -0.0000552700
   0.0003167700    0.0000000000   -0.0000029400
  -0.0001006500   -0.0000413900    0.0001104300
  -0.0001013500    0.0000423800   -0.0001138000
   0.0002031500    0.0000007600   -0.0000018200
  -0.0001006500    0.0000413900    0.0001104300
  -0.0001013500   -0.0000423800   -0.0001138000
   0.0002031500   -0.0000007600   -0.0000018200

1    
  0.0000000000000000   0.0100000000000000   0.0000000000000000
   0.0000000000   -0.1055537700    0.0015843400
  -0.0000089200   -0.0038140000    0.0031408700
   0.0000089200   -0.0038140000    0.0031408700
   0.0000000000    0.0094245000   -0.0029950000
   0.0015311700    0.0029802100    0.0037500600
  -0.0015311700    0.0029802100    0.0037500600
   0.0000000000    0.0094330000    0.0092842400
  -0.0015288000    0.0029689500    0.0025520800
   0.0015288000    0.0029689500    0.0025520800
   0.0000000000    0.0000099200    0.0031564500
   0.0000000200   -0.0000028500    0.0031562000
  -0.0000000200   -0.0000028500    0.0031562000
   0.0000000000   -0.0000010900    0.0031777200
  -0.0000065300   -0.0000032400    0.0031670700
   0.0000065300   -0.0000032400    0.0031670700
   0.0000000000   -0.0000006400    0.0031350100
   0.0000061100   -0.0000028600    0.0031459900
  -0.0000061100   -0.0000028600    0.0031459900
  -0.0164637300    0.0072813000    0.0040296300
   0.0164637300    0.0072813000    0.0040296300
   0.0000000000   -0.0004925200    0.0012974300
  -0.0000021900    0.0023033200    0.0031488700
   0.0000021900    0.0023033200    0.0031488700
   0.0000000000    0.0013033000    0.0031503900
   0.0162573400    0.0072479800    0.0022872200
  -0.0162573400    0.0072479800    0.0022872200
   0.0000000000   -0.0004880300    0.0049979500
   0.0000058100   -0.0000101600    0.0031721700
  -0.0000058100   -0.0000101600    0.0031721700
   0.0000000000   -0.0000136600    0.0031686000
   0.0000000600    0.0000207300    0.0031565400
  -0.0000000600    0.0000207300    0.0031565400
   0.0000000000    0.0000287500    0.0031567300
  -0.0000057700   -0.0000096900    0.0031406700
   0.0000057700   -0.0000096900    0.0031406700
   0.0000000000   -0.0000132600    0.0031450000
   0.0000000000   -0.0006176200   -0.0031515700
  -0.0000006200   -0.0003660000   -0.0031515800
   0.0000006200   -0.0003660000   -0.0031515800
   0.0000000000    0.0003062500   -0.0030560000
   0.0001693700    0.0002925000   -0.0031447300
  -0.0001693700    0.0002925000   -0.0031447300
   0.0000000000    0.0003085000   -0.0032470100
  -0.0001693600    0.0002963500   -0.0031571400
   0.0001693600    0.0002963500   -0.0031571400
   0.0000000000   -0.0058795900   -0.0030820200
  -0.0000339800   -0.0000066000   -0.0031267400
   0.0000339800   -0.0000066000   -0.0031267400
   0.0000000000    0.0002001200   -0.0050913600
   0.0003662300    0.0003134900   -0.0039630800
  -0.0003662300    0.0003134900   -0.0039630800
   0.0000000000    0.0002111800   -0.0012265900
  -0.0003667300    0.0003199200   -0.0023512800
   0.0003667300    0.0003199200   -0.0023512800
  -0.0001453700   -0.0001270200   -0.0029741400
   0.0001453700   -0.0001270200   -0.0029741400
   0.0000000000   -0.0000122000   -0.0030527300
   0.0000004000    0.0003436600   -0.0031498600
  -0.0000004000    0.0003436600   -0.0031498600
   0.0000000000   -0.0000294900   -0.0031494300
   0.0001460200   -0.0001262300   -0.0033293800
  -0.0001460200   -0.0001262300   -0.0033293800
   0.0000000000   -0.0000118300   -0.0032505700
  -0.0004203700   -0.0007558400   -0.0042141400
   0.0004203700   -0.0007558400   -0.0042141400
   0.0000000000   -0.0002498500   -0.0032677600
   0.0000002300    0.0015514700   -0.0031555700
  -0.0000002300    0.0015514700   -0.0031555700
   0.0000000000    0.0005840700   -0.0031555300
   0.0004230600   -0.0007351900   -0.0020910200
  -0.0004230600   -0.0007351900   -0.0020910200
   0.0000000000   -0.0002401500   -0.0030460700
   0.0000000000    0.0248651600    0.0118204100
  -0.0062115100    0.0022561600   -0.0107331200
   0.0062115100    0.0022561600   -0.0107331200
   0.0000000000   -0.0103703500   -0.0087399200
  -0.0000005100   -0.0036031100   -0.0087418400
   0.0000005100   -0.0036031100   -0.0087418400
   0.0000000000    0.0225400600   -0.0278582500
   0.0062003900    0.0022411100   -0.0067587100
  -0.0062003900    0.0022411100   -0.0067587100
   0.0000000000    0.0000250500   -0.0087519100
   0.0000086900    0.0000304200   -0.0087397200
  -0.0000086900    0.0000304200   -0.0087397200
   0.0000000000   -0.0000515600   -0.0087480600
  -0.0000001900   -0.0000533700   -0.0087480400
   0.0000001900   -0.0000533700   -0.0087480400
   0.0000000000    0.0000239800   -0.0087448100
  -0.0000083900    0.0000289000   -0.0087567200
   0.0000083900    0.0000289000   -0.0087567200
   0.0000000000    0.0008462700    0.0076374300
  -0.0002138100    0.0007203500    0.0083310800
   0.0002138100    0.0007203500    0.0083310800
   0.0000000000   -0.0017849900    0.0087411600
  -0.0000025800   -0.0017177200    0.0087391400
   0.0000025800   -0.0017177200    0.0087391400
   0.0000000000    0.0008395900    0.0098455100
   0.0002141700    0.0007160500    0.0091549200
  -0.0002141700    0.0007160500    0.0091549200
   0.0000000000    0.0009955400    0.0103832800
  -0.0003543000    0.0004244300    0.0090370000
   0.0003543000    0.0004244300    0.0090370000
   0.0000000000   -0.0013892900    0.0087443400
   0.0000001700   -0.0008433900    0.0087448500
  -0.0000001700   -0.0008433900    0.0087448500
   0.0000000000    0.0009529000    0.0071071700
   0.0003584400    0.0004016200    0.0084448400
  -0.0003584400    0.0004016200    0.0084448400
  -0.0000336300    0.0110489000   -0.0000025800
   0.0000336300    0.0110489000   -0.0000025800
   0.0000000000    0.0016781800    0.0000156000
   0.0017327400   -0.0037495800    0.0039625800
  -0.0017327400   -0.0037495800    0.0039625800
   0.0000000000   -0.0008196800    0.0009714200
  -0.0017353100   -0.0037514900   -0.0039398100
   0.0017353100   -0.0037514900   -0.0039398100
   0.0000000000   -0.0008246200   -0.0009524600
  -0.0000000400    0.0001013800   -0.0000054900
   0.0000000400    0.0001013800   -0.0000054900
   0.0000000000    0.0000252300   -0.0000058300
   0.0000507300   -0.0000476200   -0.0001496800
  -0.0000507300   -0.0000476200   -0.0001496800
   0.0000000000   -0.0000063200   -0.0000366000
  -0.0000512800   -0.0000487200    0.0001368300
   0.0000512800   -0.0000487200    0.0001368300
   0.0000000000   -0.0000080000    0.0000232400
  -0.0000031500   -0.0014394000    0.0000001800
   0.0000031500   -0.0014394000    0.0000001800
   0.0000000000   -0.0011298300    0.0000016700
  -0.0019650000    0.0022648100    0.0023305300
   0.0019650000    0.0022648100    0.0023305300
   0.0000000000    0.0005600600    0.0005091900
   0.0019573000    0.0022577400   -0.0023222300
  -0.0019573000    0.0022577400   -0.0023222300
   0.0000000000    0.0005590800   -0.0005072500
   0.0000004500   -0.0001265100    0.0000022000
  -0.0000004500   -0.0001265100    0.0000022000
   0.0000000000   -0.0001200400    0.0000024300
   0.0000448400    0.0000246200    0.0000079000
  -0.0000448400    0.0000246200    0.0000079000
   0.0000000000    0.0000707400   -0.0000695900
  -0.0000442100    0.0000266600   -0.0000041200
   0.0000442100    0.0000266600   -0.0000041200
   0.0000000000    0.0000720200    0.0000721400

1    
  0.0000000000000000   0.0000000000000000   0.0100000000000000
   0.0000000000    0.0000000000   -0.0768498800
  -0.0013532100    0.0000000000    0.0004197200
   0.0013532100    0.0000000000    0.0004197200
   0.0000000000    0.0061644400   -0.0042720800
   0.0001274100   -0.0006026100    0.0025458400
  -0.0001274100   -0.0006026100    0.0025458400
   0.0000000000   -0.0061644400   -0.0042720800
   0.0001274100    0.0006026100    0.0025458400
  -0.0001274100    0.0006026100    0.0025458400
   0.0000000000    0.0000000000    0.0038696200
  -0.0000105500    0.0000000000    0.0038597300
   0.0000105500    0.0000000000    0.0038597300
   0.0000000000   -0.0000211800    0.0038543900
  -0.0000087100   -0.0000103500    0.0038717300
   0.0000087100   -0.0000103500    0.0038717300
   0.0000000000    0.0000211800    0.0038543900
  -0.0000087100    0.0000103500    0.0038717300
   0.0000087100    0.0000103500    0.0038717300
   0.0009027900   -0.0024078300   -0.0023314000
  -0.0009027900   -0.0024078300   -0.0023314000
   0.0000000000   -0.0005169700    0.0024823900
  -0.0018541300    0.0000000000    0.0024800000
   0.0018541300    0.0000000000    0.0024800000
   0.0000000000    0.0000000000    0.0020994400
   0.0009027900    0.0024078300   -0.0023314000
  -0.0009027900    0.0024078300   -0.0023314000
   0.0000000000    0.0005169700    0.0024823900
   0.0000158100   -0.0000165600    0.0038632900
  -0.0000158100   -0.0000165600    0.0038632900
   0.0000000000   -0.0000149200    0.0038583700
   0.0000115200    0.0000000000    0.0038580900
  -0.0000115200    0.0000000000    0.0038580900
   0.0000000000    0.0000000000    0.0038781200
   0.0000158100    0.0000165600    0.0038632900
  -0.0000158100    0.0000165600    0.0038632900
   0.0000000000    0.0000149200    0.0038583700
   0.0000000000    0.0000000000   -0.0023728000
   0.0001539000    0.0000000000   -0.0024735700
  -0.0001539000    0.0000000000   -0.0024735700
   0.0000000000    0.0000973200   -0.0024490100
   0.0000400300    0.0000091400   -0.0024193400
  -0.0000400300    0.0000091400   -0.0024193400
   0.0000000000   -0.0000973200   -0.0024490100
   0.0000400300   -0.0000091400   -0.0024193400
  -0.0000400300   -0.0000091400   -0.0024193400
   0.0000000000    0.0000000000    0.0169368000
  -0.0053411700    0.0000000000    0.0013366500
   0.0053411700    0.0000000000    0.0013366500
   0.0000000000   -0.0019265300   -0.0051770000
   0.0000581100   -0.0008042800   -0.0039784700
  -0.0000581100   -0.0008042800   -0.0039784700
   0.0000000000    0.0019265300   -0.0051770000
   0.0000581100    0.0008042800   -0.0039784700
  -0.0000581100    0.0008042800   -0.0039784700
  -0.0001772100    0.0000675500   -0.0024333300
   0.0001772100    0.0000675500   -0.0024333300
   0.0000000000   -0.0000439800   -0.0024732300
  -0.0000984500    0.0000000000   -0.0024750800
   0.0000984500    0.0000000000   -0.0024750800
   0.0000000000    0.0000000000   -0.0023733900
  -0.0001772100   -0.0000675500   -0.0024333300
   0.0001772100   -0.0000675500   -0.0024333300
   0.0000000000    0.0000439800   -0.0024732300
   0.0010576700   -0.0024248300   -0.0024932000
  -0.0010576700   -0.0024248300   -0.0024932000
   0.0000000000   -0.0008836900   -0.0038343500
   0.0001090600    0.0000000000   -0.0038337400
  -0.0001090600    0.0000000000   -0.0038337400
   0.0000000000    0.0000000000   -0.0034841000
   0.0010576700    0.0024248300   -0.0024932000
  -0.0010576700    0.0024248300   -0.0024932000
   0.0000000000    0.0008836900   -0.0038343500
   0.0000000000    0.0181677700    0.0233012300
  -0.0002857500    0.0007650500   -0.0074163600
   0.0002857500    0.0007650500   -0.0074163600
   0.0000000000    0.0000000000   -0.0101069400
  -0.0010692500    0.0000000000   -0.0079682300
   0.0010692500    0.0000000000   -0.0079682300
   0.0000000000   -0.0181677700    0.0233012300
  -0.0002857500   -0.0007650500   -0.0074163600
   0.0002857500   -0.0007650500   -0.0074163600
   0.0000000000    0.0001088200   -0.0096160900
   0.0000593500    0.0001243500   -0.0095656700
  -0.0000593500    0.0001243500   -0.0095656700
   0.0000000000    0.0000000000   -0.0095315900
   0.0000869700    0.0000000000   -0.0095315900
  -0.0000869700    0.0000000000   -0.0095315900
   0.0000000000   -0.0001088200   -0.0096160900
   0.0000593500   -0.0001243500   -0.0095656700
  -0.0000593500   -0.0001243500   -0.0095656700
   0.0000000000   -0.0002517100    0.0075364300
  -0.0006955900   -0.0001583300    0.0080910100
   0.0006955900   -0.0001583300    0.0080910100
   0.0000000000    0.0000000000    0.0079112700
  -0.0005843000    0.0000000000    0.0079920700
   0.0005843000    0.0000000000    0.0079920700
   0.0000000000    0.0002517100    0.0075364300
  -0.0006955900    0.0001583300    0.0080910100
   0.0006955900    0.0001583300    0.0080910100
   0.0000000000    0.0059796000    0.0069712800
   0.0008973600    0.0020627800    0.0079172900
  -0.0008973600    0.0020627800    0.0079172900
   0.0000000000    0.0000000000    0.0088001000
  -0.0000532500    0.0000000000    0.0087662600
   0.0000532500    0.0000000000    0.0087662600
   0.0000000000   -0.0059796000    0.0069712800
   0.0008973600   -0.0020627800    0.0079172900
  -0.0008973600   -0.0020627800    0.0079172900
  -0.0009186700    0.0000000000    0.0089731500
   0.0009186700    0.0000000000    0.0089731500
   0.0000000000    0.0000000000    0.0026301800
   0.0013035700    0.0017248800    0.0034815700
  -0.0013035700    0.0017248800    0.0034815700
   0.0000000000    0.0005979600    0.0017165600
   0.0013035700   -0.0017248800    0.0034815700
  -0.0013035700   -0.0017248800    0.0034815700
   0.0000000000   -0.0005979600    0.0017165600
   0.0000230500    0.0000000000   -0.0017550200
  -0.0000230500    0.0000000000   -0.0017550200
   0.0000000000    0.0000000000   -0.0016311000
  -0.0000194900   -0.0000187200   -0.0016920100
   0.0000194900   -0.0000187200   -0.0016920100
   0.0000000000    0.0000277900   -0.0016821100
  -0.0000194900    0.0000187200   -0.0016920100
   0.0000194900    0.0000187200   -0.0016920100
   0.0000000000   -0.0000277900   -0.0016821100
  -0.0011493300    0.0000000000    0.0016261100
   0.0011493300    0.0000000000    0.0016261100
   0.0000000000    0.0000000000   -0.0004743500
  -0.0010763300    0.0007521600    0.0010157200
   0.0010763300    0.0007521600    0.0010157200
   0.0000000000   -0.0001700500   -0.0003060800
  -0.0010763300   -0.0007521600    0.0010157200
   0.0010763300   -0.0007521600    0.0010157200
   0.0000000000    0.0001700500   -0.0003060800
   0.0001120500    0.0000000000    0.0005899800
  -0.0001120500    0.0000000000    0.0005899800
   0.0000000000    0.0000000000    0.0005946700
   0.0001417200   -0.0002827200    0.0005113100
  -0.0001417200   -0.0002827200    0.0005113100
   0.0000000000   -0.0001688400    0.0003407600
   0.0001417200    0.0002827200    0.0005113100
  -0.0001417200    0.0002827200    0.0005113100
   0.0000000000    0.0001688400    0.0003407600

1    
  0.0000000000000000   0.0000000000000000  -0.0100000000000000
   0.0000000000    0.0000000000    0.0835242600
   0.0013525700    0.0000000000    0.0058975800
  -0.0013525700    0.0000000000    0.0058975800
   0.0000000000   -0.0061156700    0.0105552200
  -0.0001340700    0.0005950300    0.0037631300
   0.0001340700    0.0005950300    0.0037631300
   0.0000000000    0.0061156700    0.0105552200
  -0.0001340700   -0.0005950300    0.0037631300
   0.0001340700   -0.0005950300    0.0037631300
   0.0000000000    0.0000000000    0.0024355600
   0.0000107900    0.0000000000    0.0024449700
  -0.0000107900    0.0000000000    0.0024449700
   0.0000000000    0.0000215900    0.0024496800
   0.0000086700    0.0000105600    0.0024318700
  -0.0000086700    0.0000105600    0.0024318700
   0.0000000000   -0.0000215900    0.0024496800
   0.0000086700   -0.0000105600    0.0024318700
  -0.0000086700   -0.0000105600    0.0024318700
  -0.0008396200    0.0023399200    0.0086487800
   0.0008396200    0.0023399200    0.0086487800
   0.0000000000    0.0005168200    0.0038329200
   0.0018469100    0.0000000000    0.0038307900
  -0.0018469100    0.0000000000    0.0038307900
   0.0000000000    0.0000000000    0.0042099700
  -0.0008396200   -0.0023399200    0.0086487800
   0.0008396200   -0.0023399200    0.0086487800
   0.0000000000   -0.0005168200    0.0038329200
  -0.0000157300    0.0000170000    0.0024412800
   0.0000157300    0.0000170000    0.0024412800
   0.0000000000    0.0000155300    0.0024473400
  -0.0000114500    0.0000000000    0.0024469000
   0.0000114500    0.0000000000    0.0024469000
   0.0000000000    0.0000000000    0.0024260200
  -0.0000157300   -0.0000170000    0.0024412800
   0.0000157300   -0.0000170000    0.0024412800
   0.0000000000   -0.0000155300    0.0024473400
   0.0000000000    0.0000000000   -0.0039374200
  -0.0001525100    0.0000000000   -0.0038354000
   0.0001525100    0.0000000000   -0.0038354000
   0.0000000000   -0.0000938900   -0.0038624400
  -0.0000408200   -0.0000034500   -0.0038917700
   0.0000408200   -0.0000034500   -0.0038917700
   0.0000000000    0.0000938900   -0.0038624400
  -0.0000408200    0.0000034500   -0.0038917700
   0.0000408200    0.0000034500   -0.0038917700
   0.0000000000    0.0000000000   -0.0235571700
   0.0053550400    0.0000000000   -0.0076656500
  -0.0053550400    0.0000000000   -0.0076656500
   0.0000000000    0.0019379500   -0.0011196400
  -0.0000564500    0.0008070300   -0.0023233200
   0.0000564500    0.0008070300   -0.0023233200
   0.0000000000   -0.0019379500   -0.0011196400
  -0.0000564500   -0.0008070300   -0.0023233200
   0.0000564500   -0.0008070300   -0.0023233200
   0.0001780700   -0.0000652000   -0.0038752600
  -0.0001780700   -0.0000652000   -0.0038752600
   0.0000000000    0.0000444000   -0.0038350100
   0.0000988700    0.0000000000   -0.0038370800
  -0.0000988700    0.0000000000   -0.0038370800
   0.0000000000    0.0000000000   -0.0039398200
   0.0001780700    0.0000652000   -0.0038752600
  -0.0001780700    0.0000652000   -0.0038752600
   0.0000000000   -0.0000444000   -0.0038350100
  -0.0010655100    0.0024307800   -0.0038125900
   0.0010655100    0.0024307800   -0.0038125900
   0.0000000000    0.0008855000   -0.0024678100
  -0.0001124500    0.0000000000   -0.0024672800
   0.0001124500    0.0000000000   -0.0024672800
   0.0000000000    0.0000000000   -0.0028180500
  -0.0010655100   -0.0024307800   -0.0038125900
   0.0010655100   -0.0024307800   -0.0038125900
   0.0000000000   -0.0008855000   -0.0024678100
   0.0000000000   -0.0173451300   -0.0405021300
   0.0003104600   -0.0007725000   -0.0100590700
  -0.0003104600   -0.0007725000   -0.0100590700
   0.0000000000    0.0000000000   -0.0073993300
   0.0010680100    0.0000000000   -0.0095216300
  -0.0010680100    0.0000000000   -0.0095216300
   0.0000000000    0.0173451300   -0.0405021300
   0.0003104600    0.0007725000   -0.0100590700
  -0.0003104600    0.0007725000   -0.0100590700
   0.0000000000   -0.0001100000   -0.0078705800
  -0.0000602600   -0.0001255200   -0.0079216500
   0.0000602600   -0.0001255200   -0.0079216500
   0.0000000000    0.0000000000   -0.0079558400
  -0.0000886400    0.0000000000   -0.0079556400
   0.0000886400    0.0000000000   -0.0079556400
   0.0000000000    0.0001100000   -0.0078705800
  -0.0000602600    0.0001255200   -0.0079216500
   0.0000602600    0.0001255200   -0.0079216500
   0.0000000000    0.0002450700    0.0099556400
   0.0006929800    0.0001483700    0.0093986300
  -0.0006929800    0.0001483700    0.0093986300
   0.0000000000    0.0000000000    0.0095865300
   0.0005862300    0.0000000000    0.0095058500
  -0.0005862300    0.0000000000    0.0095058500
   0.0000000000   -0.0002450700    0.0099556400
   0.0006929800   -0.0001483700    0.0093986300
  -0.0006929800   -0.0001483700    0.0093986300
   0.0000000000   -0.0060155500    0.0105129000
  -0.0009035300   -0.0020680200    0.0095711600
   0.0009035300   -0.0020680200    0.0095711600
   0.0000000000    0.0000000000    0.0086904000
   0.0000517300    0.0000000000    0.0087201600
  -0.0000517300    0.0000000000    0.0087201600
   0.0000000000    0.0060155500    0.0105129000
  -0.0009035300    0.0020680200    0.0095711600
   0.0009035300    0.0020680200    0.0095711600
   0.0003852700    0.0000000000   -0.0092703400
  -0.0003852700    0.0000000000   -0.0092703400
   0.0000000000    0.0000000000   -0.0026445900
  -0.0012921200   -0.0017170800   -0.0035054000
   0.0012921200   -0.0017170800   -0.0035054000
   0.0000000000   -0.0005985400   -0.0017308500
  -0.0012921200    0.0017170800   -0.0035054000
   0.0012921200    0.0017170800   -0.0035054000
   0.0000000000    0.0005985400   -0.0017308500
  -0.0000236100    0.0000000000    0.0017592000
   0.0000236100    0.0000000000    0.0017592000
   0.0000000000    0.0000000000    0.0016350800
   0.0000192900    0.0000171600    0.0016990600
  -0.0000192900    0.0000171600    0.0016990600
   0.0000000000   -0.0000297400    0.0016888800
   0.0000192900   -0.0000171600    0.0016990600
  -0.0000192900   -0.0000171600    0.0016990600
   0.0000000000    0.0000297400    0.0016888800
   0.0011248200    0.0000000000   -0.0015918700
  -0.0011248200    0.0000000000   -0.0015918700
   0.0000000000    0.0000000000    0.0004696800
   0.0010834100   -0.0007583600   -0.0010251400
  -0.0010834100   -0.0007583600   -0.0010251400
   0.0000000000    0.0001694400    0.0003033200
   0.0010834100    0.0007583600   -0.0010251400
  -0.0010834100    0.0007583600   -0.0010251400
   0.0000000000   -0.0001694400    0.0003033200
  -0.0001133900    0.0000000000   -0.0005929900
   0.0001133900    0.0000000000   -0.0005929900
   0.0000000000    0.0000000000   -0.0005963500
  -0.0001433400    0.0002845200   -0.0005138000
   0.0001433400    0.0002845200   -0.0005138000
   0.0000000000    0.0001693400   -0.0003412800
  -0.0001433400   -0.0002845200   -0.0005138000
   0.0001433400   -0.0002845200   -0.0005138000
   0.0000000000   -0.0001693400   -0.0003412800

73   
  0.0100000000000000   0.0000000000000000   0.0000000000000000
   0.0129251200    0.0000526200    0.0032013700
  -0.0048383600    0.0062092000    0.0034586900
  -0.0048272800   -0.0062038800    0.0028615100
   0.0129251200   -0.0000526200    0.0032013700
  -0.0048383600   -0.0062092000    0.0034586900
  -0.0048272800    0.0062038800    0.0028615100
   0.0009031400    0.0000000000    0.0031436800
  -0.0004163300    0.0000000000    0.0042242900
  -0.0004223900    0.0000000000    0.0020865200
   0.0001344200    0.0000001500    0.0031539400
  -0.0000711100   -0.0000084300    0.0030941600
  -0.0000707700    0.0000085900    0.0032139500
   0.0001344200   -0.0000001500    0.0031539400
  -0.0000711100    0.0000084300    0.0030941600
  -0.0000707700   -0.0000085900    0.0032139500
   0.0001454700    0.0000000000    0.0031539300
  -0.0000734500    0.0000000000    0.0030663900
  -0.0000721600    0.0000000000    0.0032424300
   0.0225011900    0.0000000000    0.0201709800
   0.0249050000    0.0000000000   -0.0153640600
  -0.0103699300    0.0000000000    0.0031752600
   0.0022296600    0.0011894900    0.0039239000
   0.0022664100   -0.0011871600    0.0023859400
  -0.0036034400   -0.0000031900    0.0031521100
   0.0022296600   -0.0011894900    0.0039239000
   0.0022664100    0.0011871600    0.0023859400
  -0.0036034400    0.0000031900    0.0031521100
   0.0000247300    0.0000000000    0.0032625800
   0.0000246400    0.0000000000    0.0030453000
  -0.0000512200    0.0000000000    0.0031553100
   0.0000296200   -0.0000124000    0.0032794200
   0.0000296400    0.0000124500    0.0030289500
  -0.0000531200    0.0000000400    0.0031546100
   0.0000296200    0.0000124000    0.0032794200
   0.0000296400   -0.0000124500    0.0030289500
  -0.0000531200   -0.0000000400    0.0031546100
   0.0006860500    0.0000003400   -0.0031558500
  -0.0004151800    0.0002149600   -0.0038491900
  -0.0004144000   -0.0002123100   -0.0024594700
   0.0006860500   -0.0000003400   -0.0031558500
  -0.0004151800   -0.0002149600   -0.0038491900