phonopy:
  version: "2.21.2"
  frequency_unit_conversion_factor: 15.633302
  symmetry_tolerance: 1.00000e-05
  configuration:
    force_constants: "WRITE"
    dim: "3 0 0 0 3 0 0 0 2"
    full_force_constants: ".TRUE."

physical_unit:
  atomic_mass: "AMU"
  length: "angstrom"
  force_constants: "eV/angstrom^2"

space_group:
  type: "P4/mmm"
  number: 123
  Hall_symbol: "-P 4 2"

supercell_matrix:
- [   3,   0,   0 ]
- [   0,   3,   0 ]
- [   0,   0,   2 ]

primitive_cell:
  lattice:
  - [     3.936024220000000,     0.000000000000000,     0.000000000000000 ] # a
  - [     0.000000000000000,     3.936024220000000,     0.000000000000000 ] # b
  - [     0.000000000000000,     0.000000000000000,     9.511373180000000 ] # c
  points:
  - symbol: O  # 1
    coordinates: [  0.500000000000000,  0.000000000000000,  0.148226520000000 ]
    mass: 15.999400
  - symbol: O  # 2
    coordinates: [  0.000000000000000,  0.500000000000000,  0.148226520000000 ]
    mass: 15.999400
  - symbol: O  # 3
    coordinates: [  0.500000000000000,  0.000000000000000,  0.851773480000000 ]
    mass: 15.999400
  - symbol: O  # 4
    coordinates: [  0.000000000000000,  0.500000000000000,  0.851773480000000 ]
    mass: 15.999400
  - symbol: Bi # 5
    coordinates: [  0.500000000000000,  0.500000000000000,  0.262648100000000 ]
    mass: 208.980400
  - symbol: Bi # 6
    coordinates: [  0.500000000000000,  0.500000000000000,  0.737351900000000 ]
    mass: 208.980400
  - symbol: Sm # 7
    coordinates: [  0.000000000000000,  0.000000000000000,  0.000000000000000 ]
    mass: 150.360000
  - symbol: I  # 8
    coordinates: [  0.000000000000000,  0.000000000000000,  0.500000000000000 ]
    mass: 126.904470
  reciprocal_lattice: # without 2pi
  - [     0.254063477282160,     0.000000000000000,     0.000000000000000 ] # a*
  - [     0.000000000000000,     0.254063477282160,     0.000000000000000 ] # b*
  - [     0.000000000000000,     0.000000000000000,     0.105137289965948 ] # c*

unit_cell:
  lattice:
  - [     3.936024220000000,     0.000000000000000,     0.000000000000000 ] # a
  - [     0.000000000000000,     3.936024220000000,     0.000000000000000 ] # b
  - [     0.000000000000000,     0.000000000000000,     9.511373180000000 ] # c
  points:
  - symbol: O  # 1
    coordinates: [  0.500000000000000,  0.000000000000000,  0.148226520000000 ]
    mass: 15.999400
    reduced_to: 1
  - symbol: O  # 2
    coordinates: [  0.000000000000000,  0.500000000000000,  0.148226520000000 ]
    mass: 15.999400
    reduced_to: 2
  - symbol: O  # 3
    coordinates: [  0.500000000000000,  0.000000000000000,  0.851773480000000 ]
    mass: 15.999400
    reduced_to: 3
  - symbol: O  # 4
    coordinates: [  0.000000000000000,  0.500000000000000,  0.851773480000000 ]
    mass: 15.999400
    reduced_to: 4
  - symbol: Bi # 5
    coordinates: [  0.500000000000000,  0.500000000000000,  0.262648100000000 ]
    mass: 208.980400
    reduced_to: 5
  - symbol: Bi # 6
    coordinates: [  0.500000000000000,  0.500000000000000,  0.737351900000000 ]
    mass: 208.980400
    reduced_to: 6
  - symbol: Sm # 7
    coordinates: [  0.000000000000000,  0.000000000000000,  0.000000000000000 ]
    mass: 150.360000
    reduced_to: 7
  - symbol: I  # 8
    coordinates: [  0.000000000000000,  0.000000000000000,  0.500000000000000 ]
    mass: 126.904470
    reduced_to: 8

supercell:
  lattice:
  - [    11.808072660000001,     0.000000000000000,     0.000000000000000 ] # a
  - [     0.000000000000000,    11.808072660000001,     0.000000000000000 ] # b
  - [     0.000000000000000,     0.000000000000000,    19.022746359999999 ] # c
  points:
  - symbol: O  # 1
    coordinates: [  0.166666666666667,  0.000000000000000,  0.074113260000000 ]
    mass: 15.999400
    reduced_to: 1
  - symbol: O  # 2
    coordinates: [  0.500000000000000,  0.000000000000000,  0.074113260000000 ]
    mass: 15.999400
    reduced_to: 1
  - symbol: O  # 3
    coordinates: [  0.833333333333333,  0.000000000000000,  0.074113260000000 ]
    mass: 15.999400
    reduced_to: 1
  - symbol: O  # 4
    coordinates: [  0.166666666666667,  0.333333333333333,  0.074113260000000 ]
    mass: 15.999400
    reduced_to: 1
  - symbol: O  # 5
    coordinates: [  0.500000000000000,  0.333333333333333,  0.074113260000000 ]
    mass: 15.999400
    reduced_to: 1
  - symbol: O  # 6
    coordinates: [  0.833333333333333,  0.333333333333333,  0.074113260000000 ]
    mass: 15.999400
    reduced_to: 1
  - symbol: O  # 7
    coordinates: [  0.166666666666667,  0.666666666666667,  0.074113260000000 ]
    mass: 15.999400
    reduced_to: 1
  - symbol: O  # 8
    coordinates: [  0.500000000000000,  0.666666666666667,  0.074113260000000 ]
    mass: 15.999400
    reduced_to: 1
  - symbol: O  # 9
    coordinates: [  0.833333333333333,  0.666666666666667,  0.074113260000000 ]
    mass: 15.999400
    reduced_to: 1
  - symbol: O  # 10
    coordinates: [  0.166666666666667,  0.000000000000000,  0.574113260000000 ]
    mass: 15.999400
    reduced_to: 1
  - symbol: O  # 11
    coordinates: [  0.500000000000000,  0.000000000000000,  0.574113260000000 ]
    mass: 15.999400
    reduced_to: 1
  - symbol: O  # 12
    coordinates: [  0.833333333333333,  0.000000000000000,  0.574113260000000 ]
    mass: 15.999400
    reduced_to: 1
  - symbol: O  # 13
    coordinates: [  0.166666666666667,  0.333333333333333,  0.574113260000000 ]
    mass: 15.999400
    reduced_to: 1
  - symbol: O  # 14
    coordinates: [  0.500000000000000,  0.333333333333333,  0.574113260000000 ]
    mass: 15.999400
    reduced_to: 1
  - symbol: O  # 15
    coordinates: [  0.833333333333333,  0.333333333333333,  0.574113260000000 ]
    mass: 15.999400
    reduced_to: 1
  - symbol: O  # 16
    coordinates: [  0.166666666666667,  0.666666666666667,  0.574113260000000 ]
    mass: 15.999400
    reduced_to: 1
  - symbol: O  # 17
    coordinates: [  0.500000000000000,  0.666666666666667,  0.574113260000000 ]
    mass: 15.999400
    reduced_to: 1
  - symbol: O  # 18
    coordinates: [  0.833333333333333,  0.666666666666667,  0.574113260000000 ]
    mass: 15.999400
    reduced_to: 1
  - symbol: O  # 19
    coordinates: [  0.000000000000000,  0.166666666666667,  0.074113260000000 ]
    mass: 15.999400
    reduced_to: 19
  - symbol: O  # 20
    coordinates: [  0.333333333333333,  0.166666666666667,  0.074113260000000 ]
    mass: 15.999400
    reduced_to: 19
  - symbol: O  # 21
    coordinates: [  0.666666666666667,  0.166666666666667,  0.074113260000000 ]
    mass: 15.999400
    reduced_to: 19
  - symbol: O  # 22
    coordinates: [  0.000000000000000,  0.500000000000000,  0.074113260000000 ]
    mass: 15.999400
    reduced_to: 19
  - symbol: O  # 23
    coordinates: [  0.333333333333333,  0.500000000000000,  0.074113260000000 ]
    mass: 15.999400
    reduced_to: 19
  - symbol: O  # 24
    coordinates: [  0.666666666666667,  0.500000000000000,  0.074113260000000 ]
    mass: 15.999400
    reduced_to: 19
  - symbol: O  # 25
    coordinates: [  0.000000000000000,  0.833333333333333,  0.074113260000000 ]
    mass: 15.999400
    reduced_to: 19
  - symbol: O  # 26
    coordinates: [  0.333333333333333,  0.833333333333333,  0.074113260000000 ]
    mass: 15.999400
    reduced_to: 19
  - symbol: O  # 27
    coordinates: [  0.666666666666667,  0.833333333333333,  0.074113260000000 ]
    mass: 15.999400
    reduced_to: 19
  - symbol: O  # 28
    coordinates: [  0.000000000000000,  0.166666666666667,  0.574113260000000 ]
    mass: 15.999400
    reduced_to: 19
  - symbol: O  # 29
    coordinates: [  0.333333333333333,  0.166666666666667,  0.574113260000000 ]
    mass: 15.999400
    reduced_to: 19
  - symbol: O  # 30
    coordinates: [  0.666666666666667,  0.166666666666667,  0.574113260000000 ]
    mass: 15.999400
    reduced_to: 19
  - symbol: O  # 31
    coordinates: [  0.000000000000000,  0.500000000000000,  0.574113260000000 ]
    mass: 15.999400
    reduced_to: 19
  - symbol: O  # 32
    coordinates: [  0.333333333333333,  0.500000000000000,  0.574113260000000 ]
    mass: 15.999400
    reduced_to: 19
  - symbol: O  # 33
    coordinates: [  0.666666666666667,  0.500000000000000,  0.574113260000000 ]
    mass: 15.999400
    reduced_to: 19
  - symbol: O  # 34
    coordinates: [  0.000000000000000,  0.833333333333333,  0.574113260000000 ]
    mass: 15.999400
    reduced_to: 19
  - symbol: O  # 35
    coordinates: [  0.333333333333333,  0.833333333333333,  0.574113260000000 ]
    mass: 15.999400
    reduced_to: 19
  - symbol: O  # 36
    coordinates: [  0.666666666666667,  0.833333333333333,  0.574113260000000 ]
    mass: 15.999400
    reduced_to: 19
  - symbol: O  # 37
    coordinates: [  0.166666666666667,  0.000000000000000,  0.425886740000000 ]
    mass: 15.999400
    reduced_to: 37
  - symbol: O  # 38
    coordinates: [  0.500000000000000,  0.000000000000000,  0.425886740000000 ]
    mass: 15.999400
    reduced_to: 37
  - symbol: O  # 39
    coordinates: [  0.833333333333333,  0.000000000000000,  0.425886740000000 ]
    mass: 15.999400
    reduced_to: 37
  - symbol: O  # 40
    coordinates: [  0.166666666666667,  0.333333333333333,  0.425886740000000 ]
    mass: 15.999400
    reduced_to: 37
  - symbol: O  # 41
    coordinates: [  0.500000000000000,  0.333333333333333,  0.425886740000000 ]
    mass: 15.999400
    reduced_to: 37
  - symbol: O  # 42
    coordinates: [  0.833333333333333,  0.333333333333333,  0.425886740000000 ]
    mass: 15.999400
    reduced_to: 37
  - symbol: O  # 43
    coordinates: [  0.166666666666667,  0.666666666666667,  0.425886740000000 ]
    mass: 15.999400
    reduced_to: 37
  - symbol: O  # 44
    coordinates: [  0.500000000000000,  0.666666666666667,  0.425886740000000 ]
    mass: 15.999400
    reduced_to: 37
  - symbol: O  # 45
    coordinates: [  0.833333333333333,  0.666666666666667,  0.425886740000000 ]
    mass: 15.999400
    reduced_to: 37
  - symbol: O  # 46
    coordinates: [  0.166666666666667,  0.000000000000000,  0.925886740000000 ]
    mass: 15.999400
    reduced_to: 37
  - symbol: O  # 47
    coordinates: [  0.500000000000000,  0.000000000000000,  0.925886740000000 ]
    mass: 15.999400
    reduced_to: 37
  - symbol: O  # 48
    coordinates: [  0.833333333333333,  0.000000000000000,  0.925886740000000 ]
    mass: 15.999400
    reduced_to: 37
  - symbol: O  # 49
    coordinates: [  0.166666666666667,  0.333333333333333,  0.925886740000000 ]
    mass: 15.999400
    reduced_to: 37
  - symbol: O  # 50
    coordinates: [  0.500000000000000,  0.333333333333333,  0.925886740000000 ]
    mass: 15.999400
    reduced_to: 37
  - symbol: O  # 51
    coordinates: [  0.833333333333333,  0.333333333333333,  0.925886740000000 ]
    mass: 15.999400
    reduced_to: 37
  - symbol: O  # 52
    coordinates: [  0.166666666666667,  0.666666666666667,  0.925886740000000 ]
    mass: 15.999400
    reduced_to: 37
  - symbol: O  # 53
    coordinates: [  0.500000000000000,  0.666666666666667,  0.925886740000000 ]
    mass: 15.999400
    reduced_to: 37
  - symbol: O  # 54
    coordinates: [  0.833333333333333,  0.666666666666667,  0.925886740000000 ]
    mass: 15.999400
    reduced_to: 37
  - symbol: O  # 55
    coordinates: [  0.000000000000000,  0.166666666666667,  0.425886740000000 ]
    mass: 15.999400
    reduced_to: 55
  - symbol: O  # 56
    coordinates: [  0.333333333333333,  0.166666666666667,  0.425886740000000 ]
    mass: 15.999400
    reduced_to: 55
  - symbol: O  # 57
    coordinates: [  0.666666666666667,  0.166666666666667,  0.425886740000000 ]
    mass: 15.999400
    reduced_to: 55
  - symbol: O  # 58
    coordinates: [  0.000000000000000,  0.500000000000000,  0.425886740000000 ]
    mass: 15.999400
    reduced_to: 55
  - symbol: O  # 59
    coordinates: [  0.333333333333333,  0.500000000000000,  0.425886740000000 ]
    mass: 15.999400
    reduced_to: 55
  - symbol: O  # 60
    coordinates: [  0.666666666666667,  0.500000000000000,  0.425886740000000 ]
    mass: 15.999400
    reduced_to: 55
  - symbol: O  # 61
    coordinates: [  0.000000000000000,  0.833333333333333,  0.425886740000000 ]
    mass: 15.999400
    reduced_to: 55
  - symbol: O  # 62
    coordinates: [  0.333333333333333,  0.833333333333333,  0.425886740000000 ]
    mass: 15.999400
    reduced_to: 55
  - symbol: O  # 63
    coordinates: [  0.666666666666667,  0.833333333333333,  0.425886740000000 ]
    mass: 15.999400
    reduced_to: 55
  - symbol: O  # 64
    coordinates: [  0.000000000000000,  0.166666666666667,  0.925886740000000 ]
    mass: 15.999400
    reduced_to: 55
  - symbol: O  # 65
    coordinates: [  0.333333333333333,  0.166666666666667,  0.925886740000000 ]
    mass: 15.999400
    reduced_to: 55
  - symbol: O  # 66
    coordinates: [  0.666666666666667,  0.166666666666667,  0.925886740000000 ]
    mass: 15.999400
    reduced_to: 55
  - symbol: O  # 67
    coordinates: [  0.000000000000000,  0.500000000000000,  0.925886740000000 ]
    mass: 15.999400
    reduced_to: 55
  - symbol: O  # 68
    coordinates: [  0.333333333333333,  0.500000000000000,  0.925886740000000 ]
    mass: 15.999400
    reduced_to: 55
  - symbol: O  # 69
    coordinates: [  0.666666666666667,  0.500000000000000,  0.925886740000000 ]
    mass: 15.999400
    reduced_to: 55
  - symbol: O  # 70
    coordinates: [  0.000000000000000,  0.833333333333333,  0.925886740000000 ]
    mass: 15.999400
    reduced_to: 55
  - symbol: O  # 71
    coordinates: [  0.333333333333333,  0.833333333333333,  0.925886740000000 ]
    mass: 15.999400
    reduced_to: 55
  - symbol: O  # 72
    coordinates: [  0.666666666666667,  0.833333333333333,  0.925886740000000 ]
    mass: 15.999400
    reduced_to: 55
  - symbol: Bi # 73
    coordinates: [  0.166666666666667,  0.166666666666667,  0.131324050000000 ]
    mass: 208.980400
    reduced_to: 73
  - symbol: Bi # 74
    coordinates: [  0.500000000000000,  0.166666666666667,  0.131324050000000 ]
    mass: 208.980400
    reduced_to: 73
  - symbol: Bi # 75
    coordinates: [  0.833333333333333,  0.166666666666667,  0.131324050000000 ]
    mass: 208.980400
    reduced_to: 73
  - symbol: Bi # 76
    coordinates: [  0.166666666666667,  0.500000000000000,  0.131324050000000 ]
    mass: 208.980400
    reduced_to: 73
  - symbol: Bi # 77
    coordinates: [  0.500000000000000,  0.500000000000000,  0.131324050000000 ]
    mass: 208.980400
    reduced_to: 73
  - symbol: Bi # 78
    coordinates: [  0.833333333333333,  0.500000000000000,  0.131324050000000 ]
    mass: 208.980400
    reduced_to: 73
  - symbol: Bi # 79
    coordinates: [  0.166666666666667,  0.833333333333333,  0.131324050000000 ]
    mass: 208.980400
    reduced_to: 73
  - symbol: Bi # 80
    coordinates: [  0.500000000000000,  0.833333333333333,  0.131324050000000 ]
    mass: 208.980400
    reduced_to: 73
  - symbol: Bi # 81
    coordinates: [  0.833333333333333,  0.833333333333333,  0.131324050000000 ]
    mass: 208.980400
    reduced_to: 73
  - symbol: Bi # 82
    coordinates: [  0.166666666666667,  0.166666666666667,  0.631324050000000 ]
    mass: 208.980400
    reduced_to: 73
  - symbol: Bi # 83
    coordinates: [  0.500000000000000,  0.166666666666667,  0.631324050000000 ]
    mass: 208.980400
    reduced_to: 73
  - symbol: Bi # 84
    coordinates: [  0.833333333333333,  0.166666666666667,  0.631324050000000 ]
    mass: 208.980400
    reduced_to: 73
  - symbol: Bi # 85
    coordinates: [  0.166666666666667,  0.500000000000000,  0.631324050000000 ]
    mass: 208.980400
    reduced_to: 73
  - symbol: Bi # 86
    coordinates: [  0.500000000000000,  0.500000000000000,  0.631324050000000 ]
    mass: 208.980400
    reduced_to: 73
  - symbol: Bi # 87
    coordinates: [  0.833333333333333,  0.500000000000000,  0.631324050000000 ]
    mass: 208.980400
    reduced_to: 73
  - symbol: Bi # 88
    coordinates: [  0.166666666666667,  0.833333333333333,  0.631324050000000 ]
    mass: 208.980400
    reduced_to: 73
  - symbol: Bi # 89
    coordinates: [  0.500000000000000,  0.833333333333333,  0.631324050000000 ]
    mass: 208.980400
    reduced_to: 73
  - symbol: Bi # 90
    coordinates: [  0.833333333333333,  0.833333333333333,  0.631324050000000 ]
    mass: 208.980400
    reduced_to: 73
  - symbol: Bi # 91
    coordinates: [  0.166666666666667,  0.166666666666667,  0.368675950000000 ]
    mass: 208.980400
    reduced_to: 91
  - symbol: Bi # 92
    coordinates: [  0.500000000000000,  0.166666666666667,  0.368675950000000 ]
    mass: 208.980400
    reduced_to: 91
  - symbol: Bi # 93
    coordinates: [  0.833333333333333,  0.166666666666667,  0.368675950000000 ]
    mass: 208.980400
    reduced_to: 91
  - symbol: Bi # 94
    coordinates: [  0.166666666666667,  0.500000000000000,  0.368675950000000 ]
    mass: 208.980400
    reduced_to: 91
  - symbol: Bi # 95
    coordinates: [  0.500000000000000,  0.500000000000000,  0.368675950000000 ]
    mass: 208.980400
    reduced_to: 91
  - symbol: Bi # 96
    coordinates: [  0.833333333333333,  0.500000000000000,  0.368675950000000 ]
    mass: 208.980400
    reduced_to: 91
  - symbol: Bi # 97
    coordinates: [  0.166666666666667,  0.833333333333333,  0.368675950000000 ]
    mass: 208.980400
    reduced_to: 91
  - symbol: Bi # 98
    coordinates: [  0.500000000000000,  0.833333333333333,  0.368675950000000 ]
    mass: 208.980400
    reduced_to: 91
  - symbol: Bi # 99
    coordinates: [  0.833333333333333,  0.833333333333333,  0.368675950000000 ]
    mass: 208.980400
    reduced_to: 91
  - symbol: Bi # 100
    coordinates: [  0.166666666666667,  0.166666666666667,  0.868675950000000 ]
    mass: 208.980400
    reduced_to: 91
  - symbol: Bi # 101
    coordinates: [  0.500000000000000,  0.166666666666667,  0.868675950000000 ]
    mass: 208.980400
    reduced_to: 91
  - symbol: Bi # 102
    coordinates: [  0.833333333333333,  0.166666666666667,  0.868675950000000 ]
    mass: 208.980400
    reduced_to: 91
  - symbol: Bi # 103
    coordinates: [  0.166666666666667,  0.500000000000000,  0.868675950000000 ]
    mass: 208.980400
    reduced_to: 91
  - symbol: Bi # 104
    coordinates: [  0.500000000000000,  0.500000000000000,  0.868675950000000 ]
    mass: 208.980400
    reduced_to: 91
  - symbol: Bi # 105
    coordinates: [  0.833333333333333,  0.500000000000000,  0.868675950000000 ]
    mass: 208.980400
    reduced_to: 91
  - symbol: Bi # 106
    coordinates: [  0.166666666666667,  0.833333333333333,  0.868675950000000 ]
    mass: 208.980400
    reduced_to: 91
  - symbol: Bi # 107
    coordinates: [  0.500000000000000,  0.833333333333333,  0.868675950000000 ]
    mass: 208.980400
    reduced_to: 91
  - symbol: Bi # 108
    coordinates: [  0.833333333333333,  0.833333333333333,  0.868675950000000 ]
    mass: 208.980400
    reduced_to: 91
  - symbol: Sm # 109
    coordinates: [  0.000000000000000,  0.000000000000000,  0.000000000000000 ]
    mass: 150.360000
    reduced_to: 109
  - symbol: Sm # 110
    coordinates: [  0.333333333333333,  0.000000000000000,  0.000000000000000 ]
    mass: 150.360000
    reduced_to: 109
  - symbol: Sm # 111
    coordinates: [  0.666666666666667,  0.000000000000000,  0.000000000000000 ]
    mass: 150.360000
    reduced_to: 109
  - symbol: Sm # 112
    coordinates: [  0.000000000000000,  0.333333333333333,  0.000000000000000 ]
    mass: 150.360000
    reduced_to: 109
  - symbol: Sm # 113
    coordinates: [  0.333333333333333,  0.333333333333333,  0.000000000000000 ]
    mass: 150.360000
    reduced_to: 109
  - symbol: Sm # 114
    coordinates: [  0.666666666666667,  0.333333333333333,  0.000000000000000 ]
    mass: 150.360000
    reduced_to: 109
  - symbol: Sm # 115
    coordinates: [  0.000000000000000,  0.666666666666667,  0.000000000000000 ]
    mass: 150.360000
    reduced_to: 109
  - symbol: Sm # 116
    coordinates: [  0.333333333333333,  0.666666666666667,  0.000000000000000 ]
    mass: 150.360000
    reduced_to: 109
  - symbol: Sm # 117
    coordinates: [  0.666666666666667,  0.666666666666667,  0.000000000000000 ]
    mass: 150.360000
    reduced_to: 109
  - symbol: Sm # 118
    coordinates: [  0.000000000000000,  0.000000000000000,  0.500000000000000 ]
    mass: 150.360000
    reduced_to: 109
  - symbol: Sm # 119
    coordinates: [  0.333333333333333,  0.000000000000000,  0.500000000000000 ]
    mass: 150.360000
    reduced_to: 109
  - symbol: Sm # 120
    coordinates: [  0.666666666666667,  0.000000000000000,  0.500000000000000 ]
    mass: 150.360000
    reduced_to: 109
  - symbol: Sm # 121
    coordinates: [  0.000000000000000,  0.333333333333333,  0.500000000000000 ]
    mass: 150.360000
    reduced_to: 109
  - symbol: Sm # 122
    coordinates: [  0.333333333333333,  0.333333333333333,  0.500000000000000 ]
    mass: 150.360000
    reduced_to: 109
  - symbol: Sm # 123
    coordinates: [  0.666666666666667,  0.333333333333333,  0.500000000000000 ]
    mass: 150.360000
    reduced_to: 109
  - symbol: Sm # 124
    coordinates: [  0.000000000000000,  0.666666666666667,  0.500000000000000 ]
    mass: 150.360000
    reduced_to: 109
  - symbol: Sm # 125
    coordinates: [  0.333333333333333,  0.666666666666667,  0.500000000000000 ]
    mass: 150.360000
    reduced_to: 109
  - symbol: Sm # 126
    coordinates: [  0.666666666666667,  0.666666666666667,  0.500000000000000 ]
    mass: 150.360000
    reduced_to: 109
  - symbol: I  # 127
    coordinates: [  0.000000000000000,  0.000000000000000,  0.250000000000000 ]
    mass: 126.904470
    reduced_to: 127
  - symbol: I  # 128
    coordinates: [  0.333333333333333,  0.000000000000000,  0.250000000000000 ]
    mass: 126.904470
    reduced_to: 127
  - symbol: I  # 129
    coordinates: [  0.666666666666667,  0.000000000000000,  0.250000000000000 ]
    mass: 126.904470
    reduced_to: 127
  - symbol: I  # 130
    coordinates: [  0.000000000000000,  0.333333333333333,  0.250000000000000 ]
    mass: 126.904470
    reduced_to: 127
  - symbol: I  # 131
    coordinates: [  0.333333333333333,  0.333333333333333,  0.250000000000000 ]
    mass: 126.904470
    reduced_to: 127
  - symbol: I  # 132
    coordinates: [  0.666666666666667,  0.333333333333333,  0.250000000000000 ]
    mass: 126.904470
    reduced_to: 127
  - symbol: I  # 133
    coordinates: [  0.000000000000000,  0.666666666666667,  0.250000000000000 ]
    mass: 126.904470
    reduced_to: 127
  - symbol: I  # 134
    coordinates: [  0.333333333333333,  0.666666666666667,  0.250000000000000 ]
    mass: 126.904470
    reduced_to: 127
  - symbol: I  # 135
    coordinates: [  0.666666666666667,  0.666666666666667,  0.250000000000000 ]
    mass: 126.904470
    reduced_to: 127
  - symbol: I  # 136
    coordinates: [  0.000000000000000,  0.000000000000000,  0.750000000000000 ]
    mass: 126.904470
    reduced_to: 127
  - symbol: I  # 137
    coordinates: [  0.333333333333333,  0.000000000000000,  0.750000000000000 ]
    mass: 126.904470
    reduced_to: 127
  - symbol: I  # 138
    coordinates: [  0.666666666666667,  0.000000000000000,  0.750000000000000 ]
    mass: 126.904470
    reduced_to: 127
  - symbol: I  # 139
    coordinates: [  0.000000000000000,  0.333333333333333,  0.750000000000000 ]
    mass: 126.904470
    reduced_to: 127
  - symbol: I  # 140
    coordinates: [  0.333333333333333,  0.333333333333333,  0.750000000000000 ]
    mass: 126.904470
    reduced_to: 127
  - symbol: I  # 141
    coordinates: [  0.666666666666667,  0.333333333333333,  0.750000000000000 ]
    mass: 126.904470
    reduced_to: 127
  - symbol: I  # 142
    coordinates: [  0.000000000000000,  0.666666666666667,  0.750000000000000 ]
    mass: 126.904470
    reduced_to: 127
  - symbol: I  # 143
    coordinates: [  0.333333333333333,  0.666666666666667,  0.750000000000000 ]
    mass: 126.904470
    reduced_to: 127
  - symbol: I  # 144
    coordinates: [  0.666666666666667,  0.666666666666667,  0.750000000000000 ]
    mass: 126.904470
    reduced_to: 127
