 128  128
1 1
     3.665232550769622    -0.886288518145945    -0.448482231504521
    -0.887016000000000     3.693723500000000    -0.480115000000000
    -0.448177731900863    -0.479136470256754     2.996218767415832
1 2
    -0.033057201834992     0.013724517200221    -0.008659156497773
     0.013506500000000    -0.002835500000000     0.004504000000000
    -0.008861417828100     0.004794681805247    -0.008400731633028
1 3
    -0.033728077491267    -0.003110510414590    -0.023457676679854
    -0.002840000000000     0.003367000000000     0.005699500000000
    -0.023115573480182     0.005215549684549     0.000294915077353
1 4
    -0.036318721078509     0.023042421301889     0.033681107321317
     0.023129500000000    -0.010149500000000     0.004499500000000
     0.033776804938591     0.003835381393609    -0.042579026617249
1 5
     0.026537064598224     0.035150769239781     0.070052928097531
    -0.035417500000000    -0.009851500000000     0.007658500000000
     0.070113938431705    -0.008925775178565    -0.065388185124360
1 6
    -0.027350290162295    -0.013124114346867    -0.015937435202204
     0.012686000000000     0.006245500000000     0.006159000000000
    -0.015905353755531    -0.007055768642825    -0.003416326618557
1 7
    -0.025985116835957    -0.011544684429645    -0.002926093536849
     0.011798500000000     0.010820500000000     0.002308500000000
    -0.002698190773418    -0.001894852321382    -0.015312990501293
1 8
    -0.226026910845759     0.000932191857435    -0.419147797625593
    -0.000718500000000     0.149308000000000    -0.015282000000000
    -0.418924559142030     0.015399721063218    -0.087500694558887
1 9
    -0.102627557744407    -0.056533021505266     0.391925488480200
    -0.048820000000000     0.135262500000000    -0.061435500000000
     0.345150608243101    -0.033934632997201    -0.124277329652713
1 10
    -0.044549496547436     0.013677287013333    -0.023814403389447
     0.013723000000000    -0.000288000000000     0.010350500000000
    -0.017380834024951     0.006335280692167    -0.006865995716401
1 11
    -0.176197859501286    -0.036316223800184    -0.006174574848168
     0.066275500000000     0.017723000000000     0.003249500000000
    -0.012398327349903    -0.006267251609975    -0.006590142263285
1 12
    -0.166030174146678    -0.027326191329425    -0.014683770274370
     0.019202000000000     0.018727000000000     0.013079000000000
     0.049560650036528     0.012035749487413    -0.011542960382694
1 13
     0.005147207806115     0.009672484139991    -0.019986251269928
    -0.003889500000000     0.002343000000000    -0.006241000000000
    -0.017231495961435    -0.010029783068339    -0.025886150469665
1 14
    -0.005746745755325     0.004455924242222    -0.025687737104985
     0.025160000000000    -0.004452000000000     0.040530000000000
    -0.035029479419024     0.035185588614606    -0.018906773874959
1 15
     0.164395651305820     0.033336280129531    -0.001997710418662
    -0.039541000000000    -0.177201500000000    -0.381266500000000
     0.003083928292033    -0.374513256088830    -0.130317495362660
1 16
    -0.032568391515615    -0.012571026704071    -0.019314886928302
     0.017051000000000     0.006720000000000     0.009680000000000
    -0.014249638770871    -0.002627438616185    -0.011641844176915
1 17
    -0.062048364809354    -0.037000223689873    -0.392619964945746
    -0.057405500000000     0.114064500000000     0.015291000000000
    -0.373714160722929    -0.015406712756309    -0.183848673082983
1 18
    -0.041751972130186    -0.000412371216386    -0.008607161341264
     0.020103000000000     0.005036000000000     0.011161500000000
    -0.008221236349196     0.003158989343694    -0.039306713534141
1 19
     0.038679963038798    -0.004121311066432     0.087181944321406
    -0.019546500000000     0.008590000000000    -0.017916500000000
    -0.017899055903753    -0.013760714386396    -0.162006230837424
1 20
    -0.030191225885909     0.004323353054293    -0.037527080118783
     0.021711500000000     0.006279500000000     0.010343500000000
    -0.046749507074485     0.003351490355838    -0.010058606991585
1 21
    -0.159164482271751    -0.327564813216476     0.029928903021762
    -0.345979000000000    -0.055534500000000    -0.057304000000000
     0.000542091981250    -0.020975806669756     0.117412035624265
1 22
    -0.055225801903317     0.001042586139239    -0.017453380105170
     0.035978500000000     0.002675000000000     0.010132500000000
    -0.000231076425485     0.000074382884082    -0.010766502653809
1 23
    -0.006751052407951    -0.020398032747142     0.032782209975433
    -0.050039500000000     0.014997500000000    -0.011051000000000
     0.042611358467423    -0.003933910243424    -0.014634066918540
1 24
    -0.046793506889489     0.013683880241306    -0.039006689593830
     0.044143500000000     0.005248000000000     0.026066500000000
    -0.023481847563392     0.000758364869993     0.010738262419189
1 25
    -0.023379431797223     0.021912598965975     0.004413706187356
     0.014206000000000    -0.024848000000000    -0.006644500000000
    -0.002103380833492     0.005296389028046     0.005835009285916
1 26
    -0.023500950376356     0.014654504385838    -0.002272679434498
     0.021831000000000    -0.025088000000000     0.004793500000000
     0.003973816401716    -0.005662664146524     0.005067941431021
1 27
     0.139471867854040    -0.056227597626137    -0.041458260663249
    -0.056095000000000    -0.086232500000000     0.285308000000000
    -0.041542535269743     0.285461946881489    -0.096825415419904
1 28
    -0.028057084900612     0.013316469251349    -0.013134350233220
     0.013414500000000    -0.006900500000000     0.003237000000000
    -0.012679623319729     0.002576999479376    -0.009002037964412
1 29
    -0.000544808310744    -0.010231361818129    -0.031540896798134
     0.004885500000000     0.003191000000000     0.031021500000000
    -0.018983198592172     0.013183231795275    -0.019477655852700
1 30
    -0.000471968180173    -0.004910605606229    -0.018902325576697
     0.009948000000000     0.002883500000000    -0.013726500000000
    -0.031744237999325    -0.031861313895124    -0.019858154958805
1 31
     0.028781022159413     0.040298600354087     0.034956481184407
    -0.040280000000000    -0.099074000000000    -0.028549500000000
     0.035256850357047     0.029225000832877     0.006492078262246
1 32
    -0.029312630326227    -0.012323833995634    -0.011840314130613
     0.012967000000000     0.000896500000000     0.006766500000000
    -0.011412736681278    -0.005941719151366    -0.001572347781590
1 33
    -0.019384675265120     0.010571854895436    -0.008145455602133
     0.007350000000000    -0.011208000000000     0.002143500000000
    -0.007105200165826     0.001608561000578    -0.009967095655880
1 34
     0.020643095088219     0.008752026559022    -0.015799241191341
     0.023202000000000    -0.070484500000000     0.012787000000000
    -0.017338514532580    -0.001287615459157     0.010244782147061
1 35
     0.068685914236240     0.096510056726618     0.019079456626658
    -0.079437000000000    -0.349543000000000    -0.051737000000000
     0.011637256160810     0.031330915003631     0.026065428501472
1 36
    -0.034371757350573    -0.013289107318760    -0.017088590126826
     0.015117000000000     0.002688500000000     0.009310000000000
    -0.010214694624540    -0.005308613235728    -0.008773351456877
1 37
     0.043966005082315    -0.032328651403267     0.105449719376383
    -0.025948500000000     0.005099500000000    -0.037499500000000
     0.070922591756246     0.005109606014762    -0.057755959986365
1 38
    -0.036413458174646     0.013056958397898    -0.025375463831830
     0.012941500000000    -0.006720000000000     0.009021500000000
    -0.019528283546320     0.006920058094719    -0.007788183842266
1 39
    -0.055313697416706     0.005545694698396    -0.037798089985721
     0.042978000000000     0.001875500000000     0.020285500000000
    -0.019725680597748    -0.005491770386376    -0.000927090151273
1 40
    -0.036933129805264    -0.022325913606864     0.016902028396797
    -0.013151000000000     0.002652000000000     0.001379500000000
     0.056924101615133    -0.002958623222439    -0.033498140168376
1 41
     0.032431934126616    -0.005610736650833     0.044879183265816
    -0.021294500000000    -0.045667000000000    -0.023834500000000
     0.026473408890318     0.027217075203932     0.001439456134842
1 42
    -0.040318393263640    -0.000489893014551    -0.025595632098603
     0.018763500000000    -0.002611500000000     0.011007000000000
    -0.018599065934864    -0.000341826544371    -0.008369764513586
1 43
    -0.033258622339726     0.003556241516337    -0.024329826330770
     0.014262500000000    -0.005461000000000     0.010760000000000
    -0.017932053832674     0.001949133230082    -0.010280508016002
1 44
     0.026746886574409    -0.003886285412004     0.022217590371741
    -0.014243000000000    -0.024019500000000     0.022994500000000
     0.026870517270159    -0.005469039313360    -0.026918710261084
1 45
    -0.054259105626078     0.000037898966751    -0.017980973835800
     0.032102500000000    -0.002161000000000     0.013058000000000
    -0.012682613763530    -0.000523204043592    -0.006930667984903
1 46
     0.003423173460684    -0.298890416945710    -0.006441535243768
    -0.347530000000000    -0.210012500000000     0.024684500000000
     0.009724212070674     0.025052415389910     0.126626615014056
1 47
     0.134501772074630    -0.033477253306010     0.062638777284032
    -0.053994000000000    -0.196304000000000    -0.340341500000000
     0.004947168051485    -0.284410189531097    -0.043753419411718
1 48
    -0.040375393124158     0.002709748974854    -0.023636369023817
     0.018836000000000    -0.002806500000000     0.010058500000000
    -0.013811318890871     0.002391347599904    -0.012494248002925
1 49
    -0.021273114790007    -0.211474912435826     0.039454731701737
    -0.059179000000000     0.290958000000000    -0.040023000000000
    -0.017932366513013    -0.021999327936550    -0.067717744985943
1 50
     0.042081532931283     0.002090479164499     0.017630696557349
    -0.019452000000000     0.015645000000000    -0.020753500000000
     0.006097794081248     0.001286369667959     0.023228463464006
1 51
    -0.040441931751148    -0.003865400876628    -0.118948584952243
     0.012335000000000     0.030432500000000     0.044663000000000
    -0.002964011433796    -0.061714967473334     0.112285190768866
1 52
     0.037504399738201     0.019630376451770     0.074344159177287
    -0.004192500000000     0.013288500000000     0.005076000000000
     0.028616739710567     0.009891600569506     0.015329105977970
1 53
     0.012184621166855    -0.058665952959491    -0.077291874441728
     0.001071000000000     0.065876500000000     0.039342500000000
    -0.022969019586844    -0.009500540541192     0.041501084589135
1 54
     0.039513550683117     0.025726988055175     0.061483444300110
    -0.016793000000000     0.034974000000000    -0.023301500000000
     0.026135564586261     0.016078546281341     0.002962848669219
1 55
    -0.005861189794395    -0.168612998214698     0.208720881988194
    -0.111065500000000     0.147219000000000    -0.212744500000000
     0.054242620716247    -0.054306059011648    -0.074212687418969
1 56
     0.030771026352775    -0.000748993459667     0.014013675903868
    -0.013255500000000     0.011069500000000    -0.019500000000000
     0.010015685905121     0.007840366304246     0.040621991506251
1 57
     0.001793192530068    -0.014211680581404    -0.273867077126422
     0.056599000000000    -0.047299500000000     0.011935000000000
    -0.413742605059550     0.023788936699486     0.412258397438208
1 58
     0.066284076618244    -0.001303754735267     0.051832217306745
    -0.027189500000000    -0.004949500000000    -0.016832000000000
     0.045293134894234     0.001084716256769     0.002770801108750
1 59
     0.118528469816890     0.004749846029591     0.114141159847500
    -0.047159500000000    -0.014099000000000    -0.042601000000000
     0.042558743801208    -0.001877698030341    -0.009501605956476
1 60
     0.118704597519400     0.018521744288698    -0.206217646652542
     0.025624500000000    -0.041161500000000    -0.034236000000000
    -0.364710827194920    -0.022865485592445     0.371246861588105
1 61
     0.050804369007353     0.004293342697621    -0.005459400228914
    -0.015962000000000    -0.003980000000000     0.000345000000000
     0.014219571197502     0.003777728123862     0.019240355321634
1 62
    -0.135270391237526    -0.131499763690648     0.130835330183509
    -0.172573500000000     0.016136000000000    -0.138899500000000
     0.133354503588874    -0.118538116558047    -0.176493437854752
1 63
    -0.638448920291204    -0.074933886522754     0.060198724196606
    -0.266031500000000     0.009835500000000    -0.438084000000000
     0.089224196588822    -0.089081501163430    -0.672278604436095
1 64
     0.071000963108620     0.001502244502776     0.013049128433224
    -0.025884500000000    -0.002951500000000    -0.008241500000000
     0.016030825575455     0.001082441224720     0.016643259263280
1 65
     0.124508501739428    -0.698604971547782     0.027576500724827
    -0.279566000000000    -0.864086500000000    -0.015369000000000
     0.027349846420347    -0.030910924989628    -0.561034048398859
1 66
     0.063994130510209     0.004168598140581     0.011435020392645
    -0.023771500000000    -0.013148000000000    -0.010323500000000
     0.006170147118254    -0.009056915936579     0.009151132980203
1 67
     0.064721384069358     0.005620042642495    -0.095490618385228
    -0.015174000000000    -0.048522000000000     0.039448500000000
    -0.024946526252429     0.007868133820555     0.021278349141283
1 68
     0.085381565508660     0.032514812203129     0.076224410751102
    -0.018976000000000    -0.052596500000000    -0.015378000000000
     0.031780187459933    -0.023249641377544    -0.032764150821211
1 69
    -0.020330813584023     0.066362378400303     0.099116531111828
     0.109601500000000     0.140937500000000     0.067843000000000
     0.083739205519175     0.126074390244328     0.006063449304804
1 70
     0.037077787622693    -0.002022467436707     0.002474518061506
    -0.028582000000000     0.012182000000000    -0.008584500000000
     0.007628076989373    -0.014768507257025     0.029610329421544
1 71
    -0.046804270931256    -0.061094829741338    -0.044152078461589
     0.038487500000000     0.034658500000000     0.004405500000000
    -0.021100267892806     0.091582798861813     0.082216612985272
1 72
     0.036196989477848     0.005460919704605     0.028548682586231
    -0.033840000000000     0.011681000000000    -0.021101000000000
     0.029566077922953    -0.007472038799854     0.008412016315049
1 73
     0.005029674322212     0.010072182041646     0.017474126963764
    -0.012521500000000    -0.019508500000000    -0.007979000000000
     0.130284332868968    -0.004634916312569     0.069738195901052
1 74
     0.011393315789254    -0.008986371348809     0.008776344144121
    -0.036932000000000    -0.033100000000000    -0.015107500000000
     0.126486699147759     0.005339977578217     0.126948120160032
1 75
    -0.803476113591181    -0.018059222265140    -0.215839305380692
     0.081379000000000    -0.496051000000000     0.002294500000000
    -0.821362393833213    -0.073737938400745     0.558265578321505
1 76
     0.100566765437814     0.001151349160152     0.022250456747497
    -0.047617500000000    -0.005668000000000    -0.010207500000000
     0.056753933549582     0.001173744036062     0.018664705069959
1 77
    -0.207186645187796     0.107333149470345    -0.139679075571350
     0.228038000000000     0.009591000000000    -0.101011000000000
    -0.155386524500905    -0.124844193475665     0.006978220654449
1 78
     0.101869555377073    -0.002821337080009     0.024669388077669
    -0.049283000000000    -0.001228500000000    -0.015573000000000
     0.032632368909746     0.001449144930133     0.004240761843220
1 79
     0.146396054031374     0.054808749195760    -0.005325764426116
    -0.010745500000000    -0.020108000000000     0.013561500000000
     0.009102892702255     0.002361614143732    -0.013719423483038
1 80
     0.109372636107929    -0.119753289886402     0.016102796678952
    -0.209917500000000    -0.050327000000000    -0.009279500000000
    -0.029105138797611     0.043340020357891    -0.028476556248527
1 81
     0.056321587924135    -0.003240893283278     0.037463634142657
    -0.023839500000000    -0.009105000000000    -0.016496000000000
     0.012230784317638    -0.001646187435924     0.013587555410799
1 82
     0.192702981554236    -0.311741833320074    -0.545249995008321
    -0.048073500000000    -0.574251000000000     0.093668500000000
    -0.232977854061615     0.182252684868064    -0.720868045679245
1 83
     0.030360934964364     0.013133123996724     0.050129753836525
    -0.008138000000000    -0.013457000000000    -0.015301000000000
     0.023428677691355     0.011416520564286     0.025871070143271
1 84
    -0.015237069898406    -0.033663070805158    -0.053441069830787
    -0.027839000000000    -0.127656000000000    -0.170841000000000
    -0.047057549816589    -0.189805070406804     0.164053776279898
1 85
    -0.538903976522162     0.001146383518608    -0.085760680326926
     0.022705000000000    -0.590534500000000    -0.144531000000000
    -0.032312694700590    -0.229906510842582     0.339811386695021
1 86
     0.038798110541314     0.010562160718641     0.050656380477649
    -0.016591000000000    -0.012419500000000    -0.022969500000000
     0.020094780346812     0.007532841254619     0.031639069451467
1 87
    -0.023565804791249    -0.180934153228588    -0.183543848925621
    -0.078936000000000    -0.089120500000000     0.133857000000000
    -0.159112812584975     0.168842005993786    -0.110748174054898
1 88
     0.042082123929749    -0.000289446735325     0.041565914446467
    -0.015612000000000    -0.006015000000000    -0.013173000000000
     0.017493133952126    -0.001259175514477     0.011653016928516
1 89
    -0.047467673575054    -0.015204824932774     0.067173016521780
     0.022653500000000     0.034706000000000    -0.027920000000000
    -0.000559062336574    -0.001144582456542     0.019996640437931
1 90
     0.023835827243547     0.003172117735580     0.018116449194098
    -0.034943500000000     0.021527500000000    -0.020499000000000
     0.032043372171540     0.003582549126629     0.033023283297155
1 91
    -0.117002971577355    -0.038029918540846     0.009446714537377
     0.053180500000000     0.138061500000000    -0.005963500000000
    -0.003389937944771    -0.011658612049996    -0.015922399082378
1 92
     0.047102006519385     0.002122005991589     0.029498547857160
    -0.028686000000000     0.005822000000000    -0.011928000000000
     0.016952812439140     0.001309703774462     0.019175085830924
1 93
     0.082191562585187    -0.114558561896735    -0.265078432887170
    -0.170651500000000     0.039539500000000     0.227802500000000
    -0.114024490228552     0.043535494990418    -0.078566983525136
1 94
     0.078557039027904     0.005279126618659     0.022623729570834
     0.000419000000000     0.005137500000000    -0.017782000000000
     0.037854356777090     0.002718599890097    -0.001989338838806
1 95
     0.183471857370952    -0.107263102978154    -0.099468509928320
    -0.202300500000000     0.022111500000000     0.065494000000000
     0.000205694680697    -0.012214627524722    -0.007350514640121
1 96
     0.110646970158776     0.040529407870800     0.025243025672851
    -0.003394500000000    -0.000651500000000    -0.023432500000000
    -0.008794246069336    -0.007937718900386    -0.042645252427128
1 97
     0.049047273649121     0.003886157401981     0.011894644597058
    -0.021756000000000     0.012586000000000    -0.005864500000000
     0.012831866707662    -0.000735689721162     0.005341863910889
1 98
    -0.111803063136053    -0.219797781042133    -0.008441806599004
    -0.047386500000000     0.246684000000000     0.022970500000000
     0.024382461883963     0.016855806011464    -0.057713151346410
1 99
    -0.084561993587006    -0.078569588116578    -0.022444603597631
     0.031571500000000     0.353463500000000    -0.050413000000000
     0.017898819272363    -0.168467794990179    -0.044471329708146
1 100
     0.039835205499521     0.005959325446537     0.016057273000363
    -0.016839500000000     0.004709000000000    -0.007259500000000
     0.014518778722377     0.005067461756498     0.009368365754040
1 101
    -0.029888236758394     0.185358258578650    -0.134433268041777
     0.105846500000000    -0.111360000000000    -0.086726500000000
    -0.172977503261135    -0.194431750296437     0.031616103320674
1 102
     0.052500011639724    -0.006903999546619     0.025422880795817
    -0.026022000000000    -0.003708500000000    -0.013074500000000
     0.020871290378755    -0.001301346827631     0.005539697543792
1 103
     0.040824539615089    -0.000054303528493     0.032817315845239
    -0.023756500000000    -0.009103500000000    -0.018169500000000
     0.024819469998843    -0.011580310335125     0.010701741150936
1 104
    -0.021766397070985     0.039859128603014    -0.048840252106641
     0.023824000000000    -0.059276000000000     0.024436000000000
    -0.062136608126437     0.174618572665009     0.141260210349236
1 105
    -0.102169731575275    -0.005367012313201    -0.069958591511795
     0.078398000000000     0.046089500000000     0.002132500000000
    -0.090671922365489    -0.014370414134270     0.040437447612868
1 106
     0.086959012621068     0.002567399687580     0.026522105524059
    -0.043116500000000     0.007012000000000    -0.009680000000000
     0.047836965767260     0.000346441902938     0.009651807116336
1 107
     0.057521933173157    -0.016771090160985     0.029649042778345
    -0.022076000000000     0.042311000000000    -0.022506000000000
     0.046043774466343     0.002542565081304     0.000890678304274
1 108
     0.047264728259358    -0.002938303680630    -0.023075575411230
    -0.026856500000000     0.024433000000000     0.003351000000000
    -0.035517784487237    -0.003309307567360     0.029978875806010
1 109
     0.089381624339787    -0.013630416923836    -0.003948557987251
    -0.072709000000000     0.013282500000000     0.006655500000000
     0.000927364720862     0.000515380477702     0.015185041910914
1 110
     0.074465281474084     0.093000604084408     0.084290361999683
     0.161169000000000     0.034007500000000     0.093694500000000
     0.175167000452183     0.072721547567734    -0.019318913403871
1 111
    -0.982209498478934    -0.312444625923140    -0.003251624893645
    -0.639824000000000     0.273568500000000    -0.041940000000000
    -0.037735236373270    -0.021691929664552    -0.571571345177064
1 112
     0.106303490859068     0.003673155092752     0.017343555006228
    -0.039185000000000     0.001620000000000    -0.011203000000000
     0.029962246667467    -0.001172813207385     0.008742633526964
1 113
    -0.215025843397764     0.076478450779074     0.257954230409721
     0.175951500000000    -0.031190000000000    -0.140952000000000
     0.075990843734216    -0.000086774753124    -0.087865219093135
1 114
    -0.195071961702787    -0.096963626900111    -0.127320048869341
    -0.104505000000000     0.015565500000000     0.012162500000000
    -0.165679421945790     0.007344240329633     0.049647465222444
1 115
    -0.615850974075597     2.602235710663758    -0.022347283481643
     2.546643500000000    -0.838096000000000     0.073633500000000
    -0.008328402117162     0.118378470685670     0.590380941761325
1 116
    -0.180765492211666    -0.008121176471142    -0.019106943411909
     0.043203000000000    -0.006184000000000     0.037359500000000
    -0.026003531519805     0.009861473222311    -0.027359616802866
1 117
     0.159949419165903     0.072550839768738     0.075528306553122
    -0.102405000000000    -0.112873500000000    -0.024246500000000
     0.075568775805476    -0.012367750132299    -0.065932366843833
1 118
    -0.106078091519454    -0.029639578054740    -0.086568271795247
     0.072083000000000    -0.038602000000000     0.025953000000000
    -0.070962155535924    -0.006579455157758    -0.028477186658214
1 119
     0.062021925927466     0.087015942989215    -0.142861641795046
    -0.043189500000000    -0.363549000000000     0.100285500000000
    -0.029696132280527    -0.058421194447842     0.040870788824200
1 120
    -0.086226423266877     0.005040970017432    -0.010281487183902
     0.056143000000000    -0.036332000000000     0.028947000000000
    -0.002930327434786     0.005629069812096    -0.062221645796644
1 121
     0.642819368611451    -0.032568662665455     0.045359539369379
    -0.220987000000000    -0.681361000000000     1.854989000000000
    -0.003095020742510     1.589357950745017    -0.186707907311714
1 122
    -0.132467409317766    -0.019343400190657    -0.046241041989115
     0.055948000000000     0.009232500000000     0.021472500000000
    -0.044239017361732    -0.018181908056779    -0.038310732503385
1 123
    -0.176538856393729    -0.007141233243152    -0.020893158781269
     0.042822000000000     0.000790000000000     0.006036500000000
    -0.025887733671721     0.002847720454298    -0.021017527916959
1 124
    -0.130503374587540     1.378480979859329    -0.073291725482836
     1.330524000000000    -0.294683000000000    -0.164955000000000
    -0.093826785587138    -0.264126942383582     0.481216525639399
1 125
    -0.080654120344941    -0.020153565882023    -0.135503822041099
     0.039692000000000     0.036115000000000     0.053285500000000
    -0.137592915585733    -0.000045772179159    -0.028492815580085
1 126
    -0.031582592178867    -0.012632828418763     0.192715263581231
    -0.050619500000000     0.141560500000000     0.022554500000000
     0.246716553621850    -0.119533209323278    -1.416573515213237
1 127
    -0.376078612071507    -0.195170291553960     2.089358206494780
    -0.233673500000000     0.549327000000000     0.019436500000000
     2.526661802927898     0.046428538461269    -0.801854102329775
1 128
    -0.180764964336096     0.010076516515056    -0.072824170594521
     0.079572000000000     0.013603000000000     0.027484000000000
    -0.079948495857645     0.003055237936996    -0.010117088832019
2 1
    -0.033057201834992     0.013724517200221    -0.008659156497773
     0.013506500000000    -0.002835500000000     0.004504000000000
    -0.008861417828100     0.004794681805247    -0.008400731633028
2 2
     3.665232550769622    -0.886288518145945    -0.448482231504521
    -0.887016000000000     3.693723500000000    -0.480115000000000
    -0.448177731900863    -0.479136470256754     2.996218767415831
2 3
    -0.036318721078509     0.023042421301889     0.033681107321317
     0.023129500000000    -0.010149500000000     0.004499500000000
     0.033776804938591     0.003835381393609    -0.042579026617249
2 4
    -0.033728077491267    -0.003110510414590    -0.023457676679854
    -0.002840000000000     0.003367000000000     0.005699500000000
    -0.023115573480182     0.005215549684549     0.000294915077353
2 5
    -0.027350290162295    -0.013124114346867    -0.015937435202204
     0.012686000000000     0.006245500000000     0.006159000000000
    -0.015905353755531    -0.007055768642825    -0.003416326618557
2 6
     0.026537064598224     0.035150769239781     0.070052928097531
    -0.035417500000000    -0.009851500000000     0.007658500000000
     0.070113938431705    -0.008925775178565    -0.065388185124360
2 7
    -0.226026910845759     0.000932191857435    -0.419147797625593
    -0.000718500000000     0.149308000000000    -0.015282000000000
    -0.418924559142030     0.015399721063218    -0.087500694558887
2 8
    -0.025985116835957    -0.011544684429645    -0.002926093536849
     0.011798500000000     0.010820500000000     0.002308500000000
    -0.002698190773418    -0.001894852321382    -0.015312990501293
2 9
    -0.044549496547436     0.013677287013333    -0.023814403389447
     0.013723000000000    -0.000288000000000     0.010350500000000
    -0.017380834024951     0.006335280692167    -0.006865995716401
2 10
    -0.102627557744407    -0.056533021505266     0.391925488480200
    -0.048820000000000     0.135262500000000    -0.061435500000000
     0.345150608243101    -0.033934632997201    -0.124277329652713
2 11
    -0.166030174146678    -0.027326191329425    -0.014683770274370
     0.019202000000000     0.018727000000000     0.013079000000000
     0.049560650036528     0.012035749487413    -0.011542960382694
2 12
    -0.176197859501286    -0.036316223800184    -0.006174574848168
     0.066275500000000     0.017723000000000     0.003249500000000
    -0.012398327349903    -0.006267251609975    -0.006590142263285
2 13
    -0.005746745755325     0.004455924242222    -0.025687737104985
     0.025160000000000    -0.004452000000000     0.040530000000000
    -0.035029479419024     0.035185588614606    -0.018906773874959
2 14
     0.005147207806115     0.009672484139991    -0.019986251269928
    -0.003889500000000     0.002343000000000    -0.006241000000000
    -0.017231495961435    -0.010029783068339    -0.025886150469665
2 15
    -0.032568391515615    -0.012571026704071    -0.019314886928302
     0.017051000000000     0.006720000000000     0.009680000000000
    -0.014249638770871    -0.002627438616185    -0.011641844176915
2 16
     0.164395651305820     0.033336280129531    -0.001997710418662
    -0.039541000000000    -0.177201500000000    -0.381266500000000
     0.003083928292033    -0.374513256088830    -0.130317495362660
2 17
    -0.041751972130186    -0.000412371216386    -0.008607161341264
     0.020103000000000     0.005036000000000     0.011161500000000
    -0.008221236349196     0.003158989343694    -0.039306713534141
2 18
    -0.062048364809354    -0.037000223689873    -0.392619964945746