128  
48   

1    
  0.0099999934012587   0.0000000000000000  -0.0000114880277593
  -0.0362504800    0.0084083800    0.0041777700
   0.0007888600   -0.0006938900   -0.0001428000
  -0.0001195600    0.0005872700    0.0004638800
  -0.0000931400    0.0003243400   -0.0001051300
   0.0001939600    0.0002020100   -0.0009332700
   0.0007311000    0.0006851700   -0.0000730900
  -0.0001982500   -0.0004399700    0.0002589100
   0.0017894100   -0.0005641900    0.0043939400
   0.0011594000    0.0002931100   -0.0043300800
   0.0005726300   -0.0004068300   -0.0001530600
   0.0016368300    0.0000907800    0.0004549500
   0.0015361900    0.0000026900    0.0005397800
  -0.0001767700    0.0001762800    0.0005899200
  -0.0000678500    0.0002258100    0.0006508700
  -0.0015204600   -0.0000721300   -0.0003808300
   0.0004483800    0.0003982300   -0.0001994300
   0.0006371500    0.0006273400    0.0036172800
   0.0004325500    0.0002620300   -0.0002363000
  -0.0004037600    0.0002987800   -0.0005521400
   0.0002844500    0.0002108700    0.0006973600
   0.0015872600    0.0030326300    0.0000258000
   0.0005350400   -0.0002664400    0.0004960000
   0.0000851000   -0.0000517000   -0.0006508500
   0.0004811500   -0.0003963800    0.0000685800
   0.0006908900   -0.0007774000   -0.0002745900
   0.0006919300   -0.0007019000   -0.0002110600
  -0.0018536000    0.0011276300    0.0006394700
  -0.0001763300    0.0004250700    0.0003602200
   0.0004612000    0.0006576600    0.0000830500
   0.0004636000    0.0006054000   -0.0000418800
  -0.0007455800   -0.0009595500   -0.0001203700
  -0.0001636100   -0.0004317200    0.0003476000
   0.0003198900   -0.0003767000   -0.0003128800
  -0.0000799100   -0.0003583400   -0.0002346000
  -0.0008113300   -0.0012378300    0.0002041900
   0.0002176000   -0.0001379100    0.0005648600
  -0.0005641500    0.0005975800   -0.0006660400
   0.0002374900    0.0001398200    0.0006458700
   0.0006794000    0.0002144700   -0.0000147700
   0.0004947600    0.0004962000   -0.0005605700
  -0.0003085200    0.0003141400   -0.0007702400
   0.0004196100    0.0002606800   -0.0000658200
   0.0003171200    0.0002208000    0.0005650000
  -0.0002813100    0.0002979900    0.0001006700
   0.0005282300   -0.0002594000    0.0005022000
  -0.0000537400    0.0027205400    0.0003897600
  -0.0013257800    0.0000835700   -0.0009470200
   0.0004212600   -0.0002830500   -0.0000851000
  -0.0002892600    0.0018128200   -0.0004153800
  -0.0009201500   -0.0003233500   -0.0001945000
  -0.0000930800    0.0003415900    0.0011716200
  -0.0008756900    0.0001065000   -0.0007596500
   0.0003807300    0.0002845800    0.0007926700
   0.0001106700   -0.0005601400   -0.0005922400
   0.0005618600    0.0019938600   -0.0020693100
   0.0001942400    0.0003115700   -0.0001198000
   0.0005221800    0.0009640900    0.0023119400
  -0.0001213400    0.0008326300   -0.0009451300
  -0.0017277300    0.0007659500   -0.0007181000
  -0.0017310100    0.0006332700    0.0024866000
  -0.0010496100   -0.0008604000    0.0004814800
   0.0008055700    0.0004953700   -0.0008864400
   0.0069163100   -0.0000842200   -0.0010381200
  -0.0001686300   -0.0008348000   -0.0005564700
  -0.0013584100    0.0067780400   -0.0000632600
  -0.0010683000   -0.0002357200    0.0000881700
  -0.0002214900   -0.0002493900    0.0007559500
  -0.0004279000   -0.0005182000   -0.0009603100
   0.0006296300   -0.0004696800   -0.0011970200
   0.0000517000    0.0002107800   -0.0002215700
   0.0000405700    0.0008038900    0.0006431200
  -0.0007853200    0.0001371600   -0.0000827400
   0.0000457000    0.0001377400   -0.0003256800
  -0.0000220600    0.0003331300   -0.0002403500
   0.0079044000    0.0004137100    0.0023042100
  -0.0011024000    0.0002300400   -0.0000743000
   0.0019803600   -0.0013154800    0.0015530600
  -0.0011145900   -0.0002147800   -0.0000977700
  -0.0013705600   -0.0007938900   -0.0000989300
  -0.0010016200    0.0009612500   -0.0003179600
  -0.0010638800   -0.0002722900   -0.0003951500
  -0.0027013500    0.0028279300    0.0054463900
  -0.0008017500    0.0001719900   -0.0005177400
  -0.0003501300    0.0006426200    0.0005124600
   0.0058907900   -0.0003157500    0.0008810700
   0.0001128100   -0.0004092200   -0.0004851900
   0.0007335500    0.0021102400    0.0018510200
   0.0000818900    0.0003055100   -0.0003949700
   0.0010187500    0.0009719100   -0.0010944100
   0.0003047800    0.0007865100   -0.0006016200
   0.0006295500    0.0012017900    0.0003304800
  -0.0010135700    0.0007949900    0.0001307700
  -0.0013637700    0.0003287700    0.0030855400
  -0.0013255500   -0.0008686600    0.0001989400
  -0.0012901900    0.0002570700    0.0005712500
  -0.0005629600   -0.0012269700   -0.0006789700
  -0.0009110300   -0.0002282900    0.0000783800
   0.0006901000    0.0020088900    0.0002823600
   0.0012686200    0.0005992900    0.0000214500
   0.0000200500   -0.0002519100   -0.0003615700
   0.0007223100   -0.0016623400    0.0011373900
  -0.0001053300    0.0002613800   -0.0004554900
  -0.0008306400    0.0001888100   -0.0001315200
  -0.0002128700   -0.0002110600    0.0006869600
   0.0011148300    0.0002887400    0.0005487000
  -0.0007760300    0.0002150200   -0.0004175600
  -0.0006715100    0.0004142600   -0.0001417700
  -0.0005669700    0.0002729900    0.0003825000
  -0.0009884800   -0.0001082500    0.0001928700
  -0.0008391400   -0.0011701200   -0.0006894700
   0.0099513500    0.0029119900   -0.0001212800
  -0.0009695300   -0.0002779600   -0.0003253100
   0.0016747200    0.0000954800   -0.0022171200
   0.0014685800    0.0018326100    0.0016371300
   0.0066647000   -0.0252894400   -0.0001346900
   0.0022821600    0.0009425900   -0.0001745000
  -0.0011263700   -0.0015893900   -0.0011233100
   0.0015349400   -0.0005637100    0.0004974200
  -0.0010976300   -0.0017351000    0.0017931400
   0.0003877100   -0.0009127900    0.0004658700
  -0.0069103800    0.0011667700   -0.0000608100
   0.0008518500    0.0010534400    0.0008265200
   0.0022398900    0.0009324700   -0.0001560700
   0.0017837000   -0.0128872200    0.0003765300
   0.0012788300   -0.0006567300    0.0009910100
   0.0007953800   -0.0007375000   -0.0022878300
   0.0032985900    0.0010908700   -0.0204443500
   0.0013355500   -0.0009601000    0.0010947400

1    
 -0.0099999934012587   0.0000000000000000   0.0000114880277593
   0.0370644200   -0.0093063700   -0.0048607100
   0.0001279200   -0.0004195100   -0.0003157900
  -0.0007935900    0.0005249400   -0.0000052800
  -0.0008202900    0.0007851000    0.0005694700
   0.0007230900    0.0009052300    0.0004692900
   0.0001844600    0.0004228500   -0.0003917600
  -0.0007178900   -0.0006708200    0.0002007400
  -0.0027215000   -0.0005459000   -0.0039870000
  -0.0009010800   -0.0008367700    0.0035112800
  -0.0003179600   -0.0001334300   -0.0006291900
  -0.0018868400   -0.0006354000    0.0003316100
  -0.0017855500   -0.0005441100    0.0002463700
  -0.0000734300    0.0003699600    0.0001907900
  -0.0001819800    0.0003141200    0.0001375500
   0.0017673800    0.0006032000   -0.0004177900
  -0.0002026600    0.0001468700   -0.0005854600
  -0.0005952300   -0.0001123100   -0.0042308900
  -0.0004023000    0.0002537100   -0.0004075400
   0.0003702500    0.0002166700    0.0011952200
  -0.0003183000    0.0002972600   -0.0000529500
  -0.0015960400   -0.0035181800    0.0006216800
  -0.0005694700   -0.0002455900    0.0001471800
  -0.0000509000   -0.0004595700    0.0000051300
  -0.0004541800   -0.0001227200   -0.0007118000
   0.0002233500   -0.0003392700   -0.0001864500
   0.0002218200   -0.0004086800   -0.0002566300
   0.0009367900   -0.0000034800   -0.0001874700
  -0.0007371800    0.0006913400    0.0000977400
   0.0004507400    0.0004527300   -0.0005473200
   0.0004548900    0.0005079200   -0.0004194700
  -0.0001707700   -0.0001542500    0.0005786100
  -0.0007496000   -0.0006780600    0.0001108300
  -0.0000676400   -0.0001653000   -0.0004755600
   0.0003333500   -0.0001832700   -0.0005508200
   0.0005621200    0.0006916500    0.0005851800
  -0.0004696000   -0.0004035700    0.0002232900
   0.0003135400   -0.0000491100    0.0014442800
  -0.0004903300    0.0004008000    0.0001385400
  -0.0004264200    0.0003255100   -0.0007707100
  -0.0002452100    0.0000497500   -0.0002217600
   0.0003395100    0.0002013000    0.0001273100
  -0.0003863300    0.0002508900   -0.0005775400
  -0.0003476400    0.0002918800    0.0000786400
   0.0002530100    0.0002203900    0.0005456400
  -0.0005566600   -0.0002586300    0.0001427400
   0.0000145000   -0.0032578400    0.0002580200
   0.0013641400   -0.0005794400    0.0003067600
  -0.0003859300   -0.0002289100   -0.0005575400
  -0.0007143100   -0.0024161700    0.0003752700
  -0.0000786600   -0.0002815700    0.0001575800
  -0.0009018500    0.0002657000   -0.0012099300
  -0.0001262600    0.0004988800    0.0007268800
   0.0006249500   -0.0008885200   -0.0007541200
   0.0009003400   -0.0000459700    0.0006373600
   0.0004433900   -0.0013771500    0.0021068100
   0.0008094300    0.0002964100    0.0001595400
   0.0005675500    0.0006793100   -0.0031748700
   0.0012033000    0.0008065300    0.0000914500
   0.0006418600    0.0008609900    0.0015649400
   0.0006514600    0.0010042300   -0.0016462800
  -0.0000338500   -0.0007746200    0.0003718500
  -0.0019029000   -0.0021319000    0.0017343200
  -0.0058547100   -0.0015808500    0.0001813000
   0.0012510200   -0.0008047800   -0.0002958700
   0.0011311300   -0.0071933400    0.0005011600
   0.0002114400   -0.0001521400    0.0003166600
   0.0010735100   -0.0001371700   -0.0011543500
   0.0012790000    0.0001326300    0.0005649300
   0.0002210900    0.0008546700    0.0007851700
   0.0007930800    0.0001706700   -0.0001727600
  -0.0008950300   -0.0004201100   -0.0002418100
  -0.0000620600    0.0002465500    0.0004880400
   0.0001433000    0.0003392900    0.0000222000
   0.0002029000    0.0001532800   -0.0000677400
  -0.0081462400    0.0000542200   -0.0020254000
   0.0009076300    0.0002530400    0.0003702800
  -0.0021598000    0.0008340500   -0.0012406800
   0.0009220500   -0.0002712400    0.0003955200
   0.0015571500    0.0003022300   -0.0002051300
   0.0011865000   -0.0014348100    0.0000047500
   0.0000622700   -0.0003370700    0.0003538100
   0.0011580600   -0.0034110900   -0.0054420400
  -0.0001950700    0.0004343900    0.0004842600
  -0.0006537900   -0.0000262800   -0.0005601300
  -0.0048865400   -0.0002875400   -0.0008419500
   0.0008883100   -0.0001981500    0.0005272100
   0.0002658900   -0.0015123200   -0.0018173100
   0.0009231300    0.0002997500    0.0004360800
   0.0000694100    0.0006678400    0.0002485900
   0.0007807600    0.0008498700   -0.0002400500
  -0.0017104300    0.0004414600    0.0005197800
  -0.0000719200    0.0008374000    0.0007203000
   0.0002826800   -0.0019634000   -0.0022142200
   0.0002447200   -0.0007631400    0.0006514600
   0.0023792400   -0.0018879100   -0.0014179500
   0.0016501800   -0.0004162000   -0.0001731300
   0.0000696200   -0.0001505500    0.0003161500
  -0.0015465200   -0.0023874500    0.0001148500
  -0.0004230300   -0.0009682300   -0.0004264200
   0.0008164200   -0.0001328400   -0.0000406400
   0.0001285200    0.0020492900   -0.0015520000
   0.0009441900    0.0001233300    0.0000528400
  -0.0000147200    0.0001879900    0.0005245800
  -0.0006467700    0.0005821100   -0.0002930900
  -0.0009264800    0.0001817300   -0.0008514000
   0.0009620500    0.0002663600    0.0001126600
   0.0004778700    0.0000787800    0.0004511900
   0.0003791400    0.0002143000   -0.0000797000
   0.0007991300   -0.0003808700    0.0001135500
   0.0006461400    0.0006882200    0.0009967800
  -0.0096919600   -0.0033364000   -0.0001731800
   0.0011558500   -0.0002044700    0.0000213600
  -0.0026275400    0.0016250500    0.0029439800
  -0.0024290500   -0.0001068300   -0.0009104100
  -0.0056521200    0.0267525200   -0.0005952000
  -0.0013325500    0.0007799400   -0.0005560100
   0.0020708800   -0.0001380900    0.0003887700
  -0.0005849900   -0.0011563500   -0.0012332900
   0.0001434900    0.0000065600   -0.0010650300
  -0.0013367500   -0.0008121000    0.0002616700
   0.0059460700    0.0004788800    0.0008506700
  -0.0017964800    0.0006669900   -0.0000974200
  -0.0012902900    0.0007895800   -0.0005734500
  -0.0008242100    0.0146884500   -0.0011003600
  -0.0003310900   -0.0010598000   -0.0017184100
   0.0001580600   -0.0009874100    0.0015990200
  -0.0042810300   -0.0028136000    0.0213612100
  -0.0022779100   -0.0007586400   -0.0003615100

1    
  0.0000000000000000   0.0100000000000000   0.0000000000000000
   0.0092483100   -0.0374082300    0.0045958100
   0.0003241500   -0.0005246200   -0.0002792000
  -0.0004267200    0.0005185900    0.0001733800
  -0.0006891700    0.0006484100    0.0001945100
   0.0008121000    0.0006451700   -0.0003165700
   0.0003310800    0.0004897600   -0.0002966600
  -0.0005773700   -0.0006615700    0.0002109500
  -0.0004364000   -0.0020411400    0.0003904300
   0.0006013600   -0.0016317300    0.0002259500
  -0.0000109500   -0.0002702400   -0.0004956000
  -0.0007900500   -0.0004485900    0.0003645800
  -0.0003135500   -0.0004607300    0.0002649400
  -0.0000886200    0.0002447600    0.0004562200
  -0.0003820300    0.0003072400   -0.0000018200
   0.0005175000    0.0020496000    0.0034273000
  -0.0000458100    0.0002021500   -0.0004897200
   0.0005793100   -0.0008833700   -0.0004818600
  -0.0001874700    0.0002088400   -0.0004314900
   0.0001797600    0.0001725900    0.0004978000
  -0.0002294600    0.0001978700    0.0002210600
   0.0034654100    0.0002922400    0.0009003400
  -0.0003775400   -0.0002814700    0.0002216400
   0.0005202700   -0.0004095500   -0.0002109200
  -0.0004291500   -0.0003148700   -0.0005832700
   0.0003157000   -0.0002961600   -0.0001733700
   0.0002375300   -0.0002988700   -0.0002884000
   0.0001058500    0.0014070300   -0.0026033400
  -0.0005889800    0.0006184800    0.0002029500
   0.0004034300    0.0005122500   -0.0005503200
   0.0003589300    0.0005178300   -0.0001010000
  -0.0000540400    0.0004432600    0.0005221500
  -0.0005811700   -0.0005575500    0.0001656800
   0.0000560000   -0.0001579100   -0.0004245500
  -0.0001009800    0.0004429700   -0.0005333300
   0.0006702200    0.0032256200    0.0009171600
  -0.0002832600   -0.0002959700    0.0003054700
   0.0001336800    0.0002215500    0.0007648900
  -0.0002571400    0.0003347900    0.0003089000
  -0.0002994200    0.0002463400   -0.0006048500
   0.0002568400    0.0002403200   -0.0004078900
   0.0002276300    0.0007167400   -0.0000828900
  -0.0001713200    0.0002813200   -0.0004314000
  -0.0001574300    0.0003118500    0.0002158700
   0.0001283400    0.0005049900    0.0000941800
  -0.0003313500   -0.0002459200    0.0001929300
   0.0034398600    0.0018298000    0.0000781500
   0.0005537400    0.0016954600    0.0030646300
  -0.0001751600   -0.0002387000   -0.0004229500
   0.0000900000   -0.0032163300    0.0003808300
  -0.0003039900   -0.0004621500    0.0001853200
  -0.0006215800   -0.0000023200   -0.0004668400
  -0.0004574500    0.0001700600   -0.0000689300
   0.0004893800   -0.0009623300   -0.0003722400
   0.0006696000   -0.0006540200    0.0002562100
   0.0016057400   -0.0011692000    0.0021453200
   0.0006320000    0.0001925600    0.0002150800
  -0.0000267700    0.0012941100   -0.0005449000
   0.0008132900    0.0008706500   -0.0002601800
  -0.0000691500    0.0009592800    0.0008537400
  -0.0007993300    0.0012337500    0.0007701800
  -0.0003790700   -0.0007829400    0.0004267600
   0.0011923100   -0.0009766300    0.0018226500
   0.0031834500   -0.0005654600    0.0039469400
   0.0007989000   -0.0007922900   -0.0003460300
   0.0023324400    0.0084189700    0.0003549100
  -0.0001898900   -0.0000561000    0.0003048900
   0.0005812100    0.0002975900   -0.0005941100
   0.0006155300    0.0003363600   -0.0000477700
  -0.0006714400   -0.0012236300   -0.0008832200
   0.0007147300    0.0000634100   -0.0001150700
  -0.0008145400   -0.0001596700    0.0001585500
  -0.0000894800    0.0000669200    0.0004136700
   0.0002130500    0.0004302600   -0.0000709300
   0.0004519100    0.0005687000   -0.0000031100
  -0.0009048900    0.0051953400    0.0001386500
   0.0003860300    0.0002931400    0.0002543400
  -0.0023705600   -0.0003327900    0.0011674500
   0.0004044000   -0.0002258400    0.0003070100
   0.0001936500   -0.0000384800   -0.0002873700
   0.0021856400    0.0002711800   -0.0000603400
  -0.0002614700   -0.0002137000    0.0001444300
  -0.0000109300    0.0054532200   -0.0009572700
  -0.0004165400    0.0004369400    0.0001343300
  -0.0002198900    0.0015867800    0.0016915300
   0.0002739800    0.0056152200    0.0014897500
   0.0006651800   -0.0001801400    0.0002511200
   0.0012912400    0.0012002800   -0.0013182800
   0.0006556400    0.0003631000    0.0001540000
   0.0003145800    0.0004732300   -0.0001512700
   0.0008884400    0.0006054200   -0.0002218200
  -0.0010714300   -0.0005583200    0.0004831800
  -0.0002549700    0.0007594300    0.0005479400
   0.0011616200   -0.0012191400   -0.0018425400
  -0.0005445400   -0.0008716400    0.0006066600
   0.0025596800   -0.0010442400   -0.0010823500
   0.0005742600   -0.0008183700   -0.0001939700
  -0.0002095800   -0.0003123100    0.0002599400
   0.0000490600   -0.0026425500   -0.0000291000
   0.0001115400   -0.0037165500    0.0003066700
   0.0005943100   -0.0002340900   -0.0001279400
  -0.0006272600    0.0012898400    0.0006621700
   0.0006857200    0.0002235300   -0.0000710700
  -0.0001900400    0.0002741200    0.0003830100
  -0.0006669600    0.0007733400   -0.0000420400
  -0.0006950600   -0.0002256600   -0.0001723000
   0.0005165400    0.0001665900   -0.0000544100
   0.0001310600   -0.0001846700    0.0003775600
   0.0001825800   -0.0000078200    0.0001172300
   0.0006397800   -0.0003730100    0.0000868100
  -0.0016943500   -0.0005819700   -0.0007806800
   0.0064956200   -0.0032604600    0.0002717200
   0.0004774900   -0.0002564900   -0.0000400900
  -0.0022448600    0.0011660700    0.0017783100
   0.0005549700    0.0007001100    0.0002472000
  -0.0248450400    0.0092065200   -0.0011033600
   0.0000556700    0.0009191600   -0.0007409000
   0.0015080100    0.0002678400   -0.0001209900
  -0.0002319900   -0.0004721800   -0.0006293200
  -0.0000527300    0.0027779300   -0.0006324600
  -0.0010458800   -0.0004945000    0.0000819200
   0.0017223900    0.0076877500   -0.0182669400
  -0.0010475300    0.0007589300    0.0001529800
   0.0000590300    0.0008462900   -0.0004315600
  -0.0128651100    0.0037891400    0.0012864000
   0.0000884400   -0.0012165600   -0.0009012800
   0.0009943000   -0.0022714300   -0.0005811800
   0.0018893100   -0.0063354900    0.0001361200
  -0.0012818300   -0.0009922000    0.0000941900

1    
  0.0000000000000000  -0.0100000000000000   0.0000000000000000
  -0.0084920100    0.0364662400   -0.0050064900
   0.0005942800   -0.0005813300   -0.0001891200
  -0.0004835200    0.0005859300    0.0002873700
  -0.0002265800    0.0004454200    0.0002845000
   0.0001037500    0.0004481400   -0.0001634000
   0.0005848000    0.0006146700   -0.0001734800
  -0.0003414000   -0.0004451600    0.0002571200
  -0.0004507700    0.0009450200    0.0000847900
  -0.0003750400    0.0010735200   -0.0010027600
   0.0002635100   -0.0002760000   -0.0002885900
   0.0005354600   -0.0000941300    0.0004295700
   0.0000704900   -0.0000861900    0.0005265200
  -0.0001664100    0.0002916200    0.0003314000
   0.0001211700    0.0002182000    0.0008087800
  -0.0002733200   -0.0014944300   -0.0041980300
   0.0002952100    0.0003365500   -0.0002961200
  -0.0005688000    0.0013979200   -0.0001760400
   0.0002145900    0.0003095600   -0.0002082600
  -0.0002111700    0.0003443900    0.0001394700
   0.0002047700    0.0003234600    0.0004279300
  -0.0034541700   -0.0008184500   -0.0002457400
   0.0003420300   -0.0002279700    0.0004242900
  -0.0004805200   -0.0001096000   -0.0004319400
   0.0004537200   -0.0002099100   -0.0000619400
   0.0005998200   -0.0007931200   -0.0003062600
   0.0006741500   -0.0008006300   -0.0001925300
  -0.0010160500   -0.0003176200    0.0031028200
  -0.0003206900    0.0004804700    0.0002676900
   0.0005011400    0.0005760700    0.0000701100
   0.0005578900    0.0005755000   -0.0003755300
  -0.0008596400   -0.0015382200   -0.0000488400
  -0.0003218300   -0.0005396200    0.0003010100
   0.0002030000   -0.0003820700   -0.0003816800
   0.0003630600   -0.0009667200   -0.0002775900
  -0.0009185200   -0.0037652400   -0.0001175800
   0.0000190800   -0.0002422000    0.0004916700
  -0.0003852900    0.0003235400    0.0000149000
   0.0000016900    0.0002003900    0.0004893300
   0.0005601400    0.0002838500   -0.0001991400
  -0.0000061800    0.0002933600   -0.0003803000
  -0.0001982600   -0.0001966000   -0.0005595800
   0.0002039500    0.0002290900   -0.0002112600
   0.0001278200    0.0002026300    0.0004310700
  -0.0001565200    0.0000246000    0.0005540700
   0.0003107000   -0.0002891400    0.0004540900
  -0.0035107400   -0.0023704500    0.0005718400
  -0.0005261400   -0.0022306200   -0.0037422000
   0.0002015600   -0.0002948300   -0.0002217800
  -0.0010935800    0.0026028300   -0.0004196300
  -0.0006930300   -0.0001492500   -0.0002297500
  -0.0003748800    0.0006063300    0.0004264200
  -0.0005413000    0.0004358300    0.0000325900
   0.0005108000    0.0003552000    0.0004146100
   0.0003337400    0.0000454600   -0.0002098200
  -0.0006155700    0.0017751800   -0.0021095700
   0.0003668900    0.0004139500   -0.0001749200
   0.0011052100    0.0003481200   -0.0003062000
   0.0002695000    0.0007716600   -0.0005968200
  -0.0010123400    0.0006773000    0.0000017200
  -0.0002868400    0.0004105200    0.0000854600
  -0.0006983100   -0.0008625400    0.0004336600
  -0.0022591600   -0.0006539100   -0.0009553400
  -0.0021371800   -0.0003687500   -0.0048147400
   0.0002812100   -0.0008513200   -0.0005108600
  -0.0032588800   -0.0088627600    0.0000475300
  -0.0006653200   -0.0003190600    0.0000984200
   0.0002777300   -0.0006728500    0.0001948600
   0.0002360100   -0.0007155700   -0.0003553300
   0.0015205900    0.0015951200    0.0004736400
   0.0001430900    0.0003070500   -0.0002867600
  -0.0000447900    0.0005335000    0.0002466600
  -0.0007662800    0.0003005400   -0.0000083500
  -0.0000373800    0.0000400900   -0.0002305100
  -0.0002867300   -0.0000933000   -0.0003052600
   0.0007226900   -0.0047256800    0.0001845400
  -0.0005663200    0.0001797800    0.0000501900
   0.0021902000   -0.0001409700   -0.0008527700
  -0.0005812600   -0.0002504100   -0.0000044500
  -0.0000212600   -0.0004406400   -0.0000161400
  -0.0020127100   -0.0007353600   -0.0002459300
  -0.0007382600   -0.0003958000   -0.0001854900
  -0.0009724000   -0.0060318000    0.0009161000
  -0.0005793000    0.0001678000   -0.0001716900
  -0.0007766700   -0.0009663400   -0.0017252900
   0.0007280800   -0.0061954700   -0.0014008700
   0.0003333600   -0.0004285300   -0.0002082700
  -0.0002874800   -0.0005821300    0.0013588600
   0.0003434000    0.0002428000   -0.0001094600
   0.0007676500    0.0011673500   -0.0007096700
   0.0001895700    0.0010359700   -0.0006318000
  -0.0000078200    0.0022029100    0.0003639100
  -0.0008286900    0.0008758700    0.0003093800
  -0.0022514100   -0.0004283500    0.0027135100
  -0.0005361600   -0.0007688900    0.0002510200
  -0.0014863300   -0.0006020100    0.0002275300
   0.0005063700   -0.0008314000   -0.0006626200
  -0.0006447000   -0.0000605900    0.0001426500
  -0.0008986700    0.0022911300    0.0004303100
   0.0007429700    0.0033527200   -0.0007015900
   0.0002575200   -0.0001399100   -0.0002731300
   0.0014896700   -0.0009373600   -0.0010723600
   0.0001652800    0.0001493600   -0.0003325600
  -0.0006651700    0.0000920500    0.0000196200
  -0.0001904800   -0.0004121800    0.0004466800
   0.0008729000    0.0006961300   -0.0001296500
  -0.0003457900    0.0003068300   -0.0002480100
  -0.0003104600    0.0006615500   -0.0000725600
  -0.0003545500    0.0004808400    0.0001842500
  -0.0008144000   -0.0001073600    0.0002199200
   0.0015290300    0.0000981800    0.0010932100
  -0.0063008600    0.0022109100   -0.0005670800
  -0.0003062100   -0.0002240900   -0.0002641500
   0.0012741700    0.0005422700   -0.0010407300
  -0.0015351300    0.0010114200    0.0004904500
   0.0260878300   -0.0075554000    0.0003693100
   0.0009197300    0.0007954800    0.0000062900
  -0.0005400900   -0.0019896300   -0.0006059200
   0.0012096700   -0.0012442200   -0.0001102600
  -0.0009165200   -0.0044930500    0.0013732500
   0.0000769800   -0.0012211400    0.0006608600
  -0.0026973500   -0.0059394700    0.0188328400
   0.0000714300    0.0009435800    0.0005824300
   0.0009154700    0.0008620900   -0.0003108300
   0.0137453700   -0.0021045200   -0.0020127000
   0.0008822800   -0.0004942600    0.0001644300
  -0.0000180900    0.0005597800   -0.0001300900
  -0.0027841600    0.0046510500    0.0005248500
   0.0003096100   -0.0007201400    0.0006438700

1    
 -0.0045348278296932   0.0000000000000000   0.0089126503664758
   0.0212179700   -0.0003385000   -0.0289237900
   0.0003879900   -0.0005383100   -0.0001941600
  -0.0004048100    0.0004974300    0.0001180300
  -0.0009261000    0.0006279900    0.0007651900
  -0.0000439900    0.0007951200    0.0006693000
   0.0004766200    0.0005578000   -0.0002724900
  -0.0005537900   -0.0005926800    0.0003535700
   0.0022534500   -0.0006911600   -0.0008867300
  -0.0033914300   -0.0002272700    0.0024817300
   0.0000755600   -0.0002664400   -0.0004380200
  -0.0008159800   -0.0003820900    0.0004219700
  -0.0013158200   -0.0005038700    0.0004308400
   0.0000570500    0.0004095800    0.0005296800
   0.0001607300   -0.0000233400    0.0004420300
   0.0008473500    0.0037738500    0.0007627200
   0.0000981000    0.0002403100   -0.0003753300
   0.0030691100    0.0002260700   -0.0004738800
  -0.0001046200    0.0002301600   -0.0000102600
   0.0003202700    0.0003614000    0.0021644200
   0.0002633600    0.0002464000    0.0002410100
  -0.0007451300   -0.0015611800   -0.0005818100
  -0.0002626600   -0.0002539600    0.0003375900
  -0.0003894300   -0.0003121000   -0.0000413900
   0.0000079800   -0.0002060400   -0.0005947600
   0.0003705000   -0.0005046200   -0.0002617800
   0.0003189400   -0.0004389900   -0.0002886700
   0.0005498200   -0.0022518100    0.0009055500
  -0.0004719500    0.0005983800    0.0002483800
   0.0006264300    0.0003902600   -0.0002013700
   0.0007380900    0.0008169100   -0.0001371600
  -0.0006407800   -0.0006332500    0.0003317900
  -0.0004908000   -0.0005617100    0.0001885100
   0.0001001100   -0.0002370200   -0.0003418600
   0.0003750200   -0.0002177400   -0.0005504800
   0.0000832200   -0.0001085900    0.0002435300
  -0.0001902100   -0.0002861400    0.0003943300
  -0.0005525900    0.0000825900    0.0013838400
  -0.0001167600    0.0002696800    0.0003441500
   0.0000488700    0.0003441400   -0.0005559500
  -0.0005551300    0.0001990400   -0.0000183500
  -0.0000753000   -0.0000070600   -0.0001302200
  -0.0000040200    0.0002578000   -0.0003635900
  -0.0000056000    0.0002566200    0.0003030600
  -0.0001291400    0.0002929700    0.0006656300
  -0.0001454300   -0.0002582400    0.0003021800
  -0.0000786500   -0.0018324500   -0.0008407900
   0.0005779300    0.0021172300    0.0003568400
  -0.0000446400   -0.0002661200   -0.0003178400
  -0.0004338300   -0.0010705700    0.0007660300
  -0.0003631900   -0.0003041400   -0.0001438700
  -0.0006573200    0.0008359600   -0.0015611600
  -0.0005846900    0.0003041100    0.0001831300
   0.0007603100   -0.0004846800   -0.0007041900
   0.0004476800   -0.0003293600    0.0002712600
  -0.0000095200    0.0000216500    0.0016325200
   0.0005520900    0.0002299300   -0.0002789900
   0.0042371900    0.0005439500   -0.0053407000
   0.0004381300    0.0008045700   -0.0002172100
  -0.0003812700    0.0008567200    0.0010319600
   0.0032526700    0.0011075700   -0.0038132400
  -0.0004373400   -0.0008342300    0.0002316800
  -0.0023434800   -0.0003601100    0.0025898900
  -0.0031514500   -0.0003872100    0.0058223100
   0.0007211300   -0.0008226300   -0.0005176700
  -0.0000518200   -0.0030949200    0.0053100100
  -0.0001901100   -0.0000976000    0.0001729300
   0.0009422900   -0.0002406900   -0.0008262800
   0.0005290500    0.0001580100    0.0004378600
  -0.0004145700   -0.0006265200    0.0001964200
   0.0005273000    0.0003178500   -0.0004531600
  -0.0004523400   -0.0009007900   -0.0007337700
  -0.0005235900    0.0002869100    0.0002566400
  -0.0010421300    0.0003251200   -0.0006950900
  -0.0009714700    0.0001519600   -0.0012405300
   0.0035423100    0.0008146700   -0.0056791000
  -0.0001483000    0.0002340100    0.0000866700
   0.0003463400    0.0013526000   -0.0005444500
   0.0000719900   -0.0002662900    0.0002256500
   0.0006845300   -0.0000119500   -0.0000541100
   0.0008519000   -0.0011697300    0.0001747700
  -0.0003530500   -0.0003035000    0.0000308200
   0.0024066600   -0.0033458600    0.0039916100
  -0.0005702800    0.0002603500   -0.0000201800
  -0.0001504900    0.0018368000   -0.0017253600
  -0.0016367400    0.0017685400   -0.0036948300
   0.0004978500   -0.0003226000   -0.0000332800
   0.0018162000   -0.0020281300    0.0001800800
   0.0005353600    0.0003123500    0.0001047000
   0.0003290900    0.0007612900   -0.0002982800
   0.0003645100    0.0008024800   -0.0006397500
  -0.0010431400    0.0007502200    0.0006156500
  -0.0004781200    0.0008164700    0.0003905300
   0.0008450500   -0.0017232700   -0.0000805000
  -0.0005223600   -0.0008186500    0.0005490800
   0.0013779000   -0.0011992300   -0.0008174800
   0.0011214700   -0.0005656200    0.0000683300
  -0.0003153400   -0.0001719300    0.0002068800
  -0.0011524200   -0.0013431600    0.0006797200
  -0.0001161400    0.0009469300    0.0000890500
   0.0004747600   -0.0002144000   -0.0002109600
   0.0018350600    0.0027750400   -0.0010926000
   0.0004764400    0.0001781400   -0.0001352600
  -0.0004607700    0.0002986400    0.0002544000
   0.0000291100   -0.0011782000   -0.0012779700
   0.0004422100    0.0003418500   -0.0008307000