phonopy:
  version: "2.21.2"
  frequency_unit_conversion_factor: 15.633302
  symmetry_tolerance: 1.00000e-05
  configuration:
    force_constants: "WRITE"
    dim: "2 0 0 0 1 0 0 0 1"
    primitive_axis: "1/2 1/2 0 -1/2 1/2 0 0 0 1"
    full_force_constants: ".TRUE."

physical_unit:
  atomic_mass: "AMU"
  length: "angstrom"
  force_constants: "eV/angstrom^2"

space_group:
  type: "C2/c"
  number: 15
  Hall_symbol: "-C 2yc"

primitive_matrix:
- [  0.500000000000000,  0.500000000000000,  0.000000000000000 ]
- [ -0.500000000000000,  0.500000000000000,  0.000000000000000 ]
- [  0.000000000000000,  0.000000000000000,  1.000000000000000 ]

supercell_matrix:
- [   2,   0,   0 ]
- [   0,   1,   0 ]
- [   0,   0,   1 ]

primitive_cell:
  lattice:
  - [     4.228882360000000,    -4.235362195000000,    -0.004858155000000 ] # a
  - [     4.228882360000000,     4.235362195000000,    -0.004858155000000 ] # b
  - [    -4.203193680000000,     0.000000000000000,     8.260863940000000 ] # c
  points:
  - symbol: Li # 1
    coordinates: [  0.305764350000000,  0.058155450000000,  0.864916100000000 ]
    mass: 6.941000
  - symbol: Li # 2
    coordinates: [  0.694235650000000,  0.941844550000000,  0.135083900000000 ]
    mass: 6.941000
  - symbol: Li # 3
    coordinates: [  0.058155450000000,  0.305764350000000,  0.364916100000000 ]
    mass: 6.941000
  - symbol: Li # 4
    coordinates: [  0.941844550000000,  0.694235650000000,  0.635083900000000 ]
    mass: 6.941000
  - symbol: Li # 5
    coordinates: [  0.432277400000000,  0.195125700000000,  0.615167200000000 ]
    mass: 6.941000
  - symbol: Li # 6
    coordinates: [  0.804874300000000,  0.567722600000000,  0.884832800000000 ]
    mass: 6.941000
  - symbol: Li # 7
    coordinates: [  0.567722600000000,  0.804874300000000,  0.384832800000000 ]
    mass: 6.941000
  - symbol: Li # 8
    coordinates: [  0.195125700000000,  0.432277400000000,  0.115167200000000 ]
    mass: 6.941000
  - symbol: Li # 9
    coordinates: [  0.645519110000000,  0.438869850000000,  0.125116570000000 ]
    mass: 6.941000
  - symbol: Li # 10
    coordinates: [  0.561130150000000,  0.354480890000000,  0.374883430000000 ]
    mass: 6.941000
  - symbol: Li # 11
    coordinates: [  0.354480890000000,  0.561130150000000,  0.874883430000000 ]
    mass: 6.941000
  - symbol: Li # 12
    coordinates: [  0.438869850000000,  0.645519110000000,  0.625116570000000 ]
    mass: 6.941000
  - symbol: O  # 13
    coordinates: [  0.051688040000000,  0.831532440000000,  0.886658400000000 ]
    mass: 15.999400
  - symbol: O  # 14
    coordinates: [  0.831532440000000,  0.051688040000000,  0.386658400000000 ]
    mass: 15.999400
  - symbol: O  # 15
    coordinates: [  0.168467560000000,  0.948311960000000,  0.613341600000000 ]
    mass: 15.999400
  - symbol: O  # 16
    coordinates: [  0.948311960000000,  0.168467560000000,  0.113341600000000 ]
    mass: 15.999400
  - symbol: O  # 17
    coordinates: [  0.290095330000000,  0.042970910000000,  0.363294910000000 ]
    mass: 15.999400
  - symbol: O  # 18
    coordinates: [  0.957029090000000,  0.709904670000000,  0.136705090000000 ]
    mass: 15.999400
  - symbol: O  # 19
    coordinates: [  0.709904670000000,  0.957029090000000,  0.636705090000000 ]
    mass: 15.999400
  - symbol: O  # 20
    coordinates: [  0.042970910000000,  0.290095330000000,  0.863294910000000 ]
    mass: 15.999400
  - symbol: O  # 21
    coordinates: [  0.575634700000000,  0.303209300000000,  0.881414500000000 ]
    mass: 15.999400
  - symbol: O  # 22
    coordinates: [  0.696790700000000,  0.424365300000000,  0.618585500000000 ]
    mass: 15.999400
  - symbol: O  # 23
    coordinates: [  0.424365300000000,  0.696790700000000,  0.118585500000000 ]
    mass: 15.999400
  - symbol: O  # 24
    coordinates: [  0.303209300000000,  0.575634700000000,  0.381414500000000 ]
    mass: 15.999400
  - symbol: O  # 25
    coordinates: [  0.820130470000000,  0.569710090000000,  0.368469800000000 ]
    mass: 15.999400
  - symbol: O  # 26
    coordinates: [  0.430289910000000,  0.179869530000000,  0.131530200000000 ]
    mass: 15.999400
  - symbol: O  # 27
    coordinates: [  0.179869530000000,  0.430289910000000,  0.631530200000000 ]
    mass: 15.999400
  - symbol: O  # 28
    coordinates: [  0.569710090000000,  0.820130470000000,  0.868469800000000 ]
    mass: 15.999400
  - symbol: Ta # 29
    coordinates: [  0.937855020000000,  0.220163980000000,  0.624789560000000 ]
    mass: 180.947880
  - symbol: Ta # 30
    coordinates: [  0.779836020000000,  0.062144980000000,  0.875210440000000 ]
    mass: 180.947880
  - symbol: Ta # 31
    coordinates: [  0.062144980000000,  0.779836020000000,  0.375210440000000 ]
    mass: 180.947880
  - symbol: Ta # 32
    coordinates: [  0.220163980000000,  0.937855020000000,  0.124789560000000 ]
    mass: 180.947880
  reciprocal_lattice: # without 2pi
  - [     0.118303700258917,    -0.118053657982372,     0.060193869413723 ] # a*
  - [     0.118303700258917,     0.118053657982372,     0.060193869413723 ] # b*
  - [     0.000139147119988,     0.000000000000000,     0.121123513177645 ] # c*

unit_cell:
  lattice:
  - [     8.457764720000000,     0.000000000000000,    -0.009716310000000 ] # a
  - [     0.000000000000000,     8.470724390000001,     0.000000000000000 ] # b
  - [    -4.203193680000000,     0.000000000000000,     8.260863940000000 ] # c
  points:
  - symbol: Li # 1
    coordinates: [  0.181959900000000,  0.876195550000000,  0.864916100000000 ]
    mass: 6.941000
    reduced_to: 1
  - symbol: Li # 2
    coordinates: [  0.818040100000000,  0.123804450000000,  0.135083900000000 ]
    mass: 6.941000
    reduced_to: 2
  - symbol: Li # 3
    coordinates: [  0.181959900000000,  0.123804450000000,  0.364916100000000 ]
    mass: 6.941000
    reduced_to: 3
  - symbol: Li # 4
    coordinates: [  0.818040100000000,  0.876195550000000,  0.635083900000000 ]
    mass: 6.941000
    reduced_to: 4
  - symbol: Li # 5
    coordinates: [  0.313701550000000,  0.881424150000000,  0.615167200000000 ]
    mass: 6.941000
    reduced_to: 5
  - symbol: Li # 6
    coordinates: [  0.686298450000000,  0.881424150000000,  0.884832800000000 ]
    mass: 6.941000
    reduced_to: 6
  - symbol: Li # 7
    coordinates: [  0.686298450000000,  0.118575850000000,  0.384832800000000 ]
    mass: 6.941000
    reduced_to: 7
  - symbol: Li # 8
    coordinates: [  0.313701550000000,  0.118575850000000,  0.115167200000000 ]
    mass: 6.941000
    reduced_to: 8
  - symbol: Li # 9
    coordinates: [  0.542194480000000,  0.896675370000000,  0.125116570000000 ]
    mass: 6.941000
    reduced_to: 9
  - symbol: Li # 10
    coordinates: [  0.457805520000000,  0.896675370000000,  0.374883430000000 ]
    mass: 6.941000
    reduced_to: 10
  - symbol: Li # 11
    coordinates: [  0.457805520000000,  0.103324630000000,  0.874883430000000 ]
    mass: 6.941000
    reduced_to: 11
  - symbol: Li # 12
    coordinates: [  0.542194480000000,  0.103324630000000,  0.625116570000000 ]
    mass: 6.941000
    reduced_to: 12
  - symbol: Li # 13
    coordinates: [  0.681959900000000,  0.376195550000000,  0.864916100000000 ]
    mass: 6.941000
    reduced_to: 1
  - symbol: Li # 14
    coordinates: [  0.318040100000000,  0.623804450000000,  0.135083900000000 ]
    mass: 6.941000
    reduced_to: 2
  - symbol: Li # 15
    coordinates: [  0.681959900000000,  0.623804450000000,  0.364916100000000 ]
    mass: 6.941000
    reduced_to: 3
  - symbol: Li # 16
    coordinates: [  0.318040100000000,  0.376195550000000,  0.635083900000000 ]
    mass: 6.941000
    reduced_to: 4
  - symbol: Li # 17
    coordinates: [  0.813701550000000,  0.381424150000000,  0.615167200000000 ]
    mass: 6.941000
    reduced_to: 5
  - symbol: Li # 18
    coordinates: [  0.186298450000000,  0.381424150000000,  0.884832800000000 ]
    mass: 6.941000
    reduced_to: 6
  - symbol: Li # 19
    coordinates: [  0.186298450000000,  0.618575850000000,  0.384832800000000 ]
    mass: 6.941000
    reduced_to: 7
  - symbol: Li # 20
    coordinates: [  0.813701550000000,  0.618575850000000,  0.115167200000000 ]
    mass: 6.941000
    reduced_to: 8
  - symbol: Li # 21
    coordinates: [  0.042194480000000,  0.396675370000000,  0.125116570000000 ]
    mass: 6.941000
    reduced_to: 9
  - symbol: Li # 22
    coordinates: [  0.957805520000000,  0.396675370000000,  0.374883430000000 ]
    mass: 6.941000
    reduced_to: 10
  - symbol: Li # 23
    coordinates: [  0.957805520000000,  0.603324630000000,  0.874883430000000 ]
    mass: 6.941000
    reduced_to: 11
  - symbol: Li # 24
    coordinates: [  0.042194480000000,  0.603324630000000,  0.625116570000000 ]
    mass: 6.941000
    reduced_to: 12
  - symbol: O  # 25
    coordinates: [  0.441610240000000,  0.389922200000000,  0.886658400000000 ]
    mass: 15.999400
    reduced_to: 25
  - symbol: O  # 26
    coordinates: [  0.441610240000000,  0.610077800000000,  0.386658400000000 ]
    mass: 15.999400
    reduced_to: 26
  - symbol: O  # 27
    coordinates: [  0.558389760000000,  0.389922200000000,  0.613341600000000 ]
    mass: 15.999400
    reduced_to: 27
  - symbol: O  # 28
    coordinates: [  0.558389760000000,  0.610077800000000,  0.113341600000000 ]
    mass: 15.999400
    reduced_to: 28
  - symbol: O  # 29
    coordinates: [  0.166533120000000,  0.876437790000000,  0.363294910000000 ]
    mass: 15.999400
    reduced_to: 29
  - symbol: O  # 30
    coordinates: [  0.833466880000000,  0.876437790000000,  0.136705090000000 ]
    mass: 15.999400
    reduced_to: 30
  - symbol: O  # 31
    coordinates: [  0.833466880000000,  0.123562210000000,  0.636705090000000 ]
    mass: 15.999400
    reduced_to: 31
  - symbol: O  # 32
    coordinates: [  0.166533120000000,  0.123562210000000,  0.863294910000000 ]
    mass: 15.999400
    reduced_to: 32
  - symbol: O  # 33
    coordinates: [  0.439422000000000,  0.863787300000000,  0.881414500000000 ]
    mass: 15.999400
    reduced_to: 33
  - symbol: O  # 34
    coordinates: [  0.560578000000000,  0.863787300000000,  0.618585500000000 ]
    mass: 15.999400
    reduced_to: 34
  - symbol: O  # 35
    coordinates: [  0.560578000000000,  0.136212700000000,  0.118585500000000 ]
    mass: 15.999400
    reduced_to: 35
  - symbol: O  # 36
    coordinates: [  0.439422000000000,  0.136212700000000,  0.381414500000000 ]
    mass: 15.999400
    reduced_to: 36
  - symbol: O  # 37
    coordinates: [  0.694920280000000,  0.874789810000000,  0.368469800000000 ]
    mass: 15.999400
    reduced_to: 37
  - symbol: O  # 38
    coordinates: [  0.305079720000000,  0.874789810000000,  0.131530200000000 ]
    mass: 15.999400
    reduced_to: 38
  - symbol: O  # 39
    coordinates: [  0.305079720000000,  0.125210190000000,  0.631530200000000 ]
    mass: 15.999400
    reduced_to: 39
  - symbol: O  # 40
    coordinates: [  0.694920280000000,  0.125210190000000,  0.868469800000000 ]
    mass: 15.999400
    reduced_to: 40
  - symbol: O  # 41
    coordinates: [  0.941610240000000,  0.889922200000000,  0.886658400000000 ]
    mass: 15.999400
    reduced_to: 25
  - symbol: O  # 42
    coordinates: [  0.941610240000000,  0.110077800000000,  0.386658400000000 ]
    mass: 15.999400
    reduced_to: 26
  - symbol: O  # 43
    coordinates: [  0.058389760000000,  0.889922200000000,  0.613341600000000 ]
    mass: 15.999400
    reduced_to: 27
  - symbol: O  # 44
    coordinates: [  0.058389760000000,  0.110077800000000,  0.113341600000000 ]
    mass: 15.999400
    reduced_to: 28
  - symbol: O  # 45
    coordinates: [  0.666533120000000,  0.376437790000000,  0.363294910000000 ]
    mass: 15.999400
    reduced_to: 29
  - symbol: O  # 46
    coordinates: [  0.333466880000000,  0.376437790000000,  0.136705090000000 ]
    mass: 15.999400
    reduced_to: 30
  - symbol: O  # 47
    coordinates: [  0.333466880000000,  0.623562210000000,  0.636705090000000 ]
    mass: 15.999400
    reduced_to: 31
  - symbol: O  # 48
    coordinates: [  0.666533120000000,  0.623562210000000,  0.863294910000000 ]
    mass: 15.999400
    reduced_to: 32
  - symbol: O  # 49
    coordinates: [  0.939422000000000,  0.363787300000000,  0.881414500000000 ]
    mass: 15.999400
    reduced_to: 33
  - symbol: O  # 50
    coordinates: [  0.060578000000000,  0.363787300000000,  0.618585500000000 ]
    mass: 15.999400
    reduced_to: 34
  - symbol: O  # 51
    coordinates: [  0.060578000000000,  0.636212700000000,  0.118585500000000 ]
    mass: 15.999400
    reduced_to: 35
  - symbol: O  # 52
    coordinates: [  0.939422000000000,  0.636212700000000,  0.381414500000000 ]
    mass: 15.999400
    reduced_to: 36
  - symbol: O  # 53
    coordinates: [  0.194920280000000,  0.374789810000000,  0.368469800000000 ]
    mass: 15.999400
    reduced_to: 37
  - symbol: O  # 54
    coordinates: [  0.805079720000000,  0.374789810000000,  0.131530200000000 ]
    mass: 15.999400
    reduced_to: 38
  - symbol: O  # 55
    coordinates: [  0.805079720000000,  0.625210190000000,  0.631530200000000 ]
    mass: 15.999400
    reduced_to: 39
  - symbol: O  # 56
    coordinates: [  0.194920280000000,  0.625210190000000,  0.868469800000000 ]
    mass: 15.999400
    reduced_to: 40
  - symbol: Ta # 57
    coordinates: [  0.579009500000000,  0.641154480000000,  0.624789560000000 ]
    mass: 180.947880
    reduced_to: 57
  - symbol: Ta # 58
    coordinates: [  0.420990500000000,  0.641154480000000,  0.875210440000000 ]
    mass: 180.947880
    reduced_to: 58
  - symbol: Ta # 59
    coordinates: [  0.420990500000000,  0.358845520000000,  0.375210440000000 ]
    mass: 180.947880
    reduced_to: 59
  - symbol: Ta # 60
    coordinates: [  0.579009500000000,  0.358845520000000,  0.124789560000000 ]
    mass: 180.947880
    reduced_to: 60
  - symbol: Ta # 61
    coordinates: [  0.079009500000000,  0.141154480000000,  0.624789560000000 ]
    mass: 180.947880
    reduced_to: 57
  - symbol: Ta # 62
    coordinates: [  0.920990500000000,  0.141154480000000,  0.875210440000000 ]
    mass: 180.947880
    reduced_to: 58
  - symbol: Ta # 63
    coordinates: [  0.920990500000000,  0.858845520000000,  0.375210440000000 ]
    mass: 180.947880
    reduced_to: 59
  - symbol: Ta # 64
    coordinates: [  0.079009500000000,  0.858845520000000,  0.124789560000000 ]
    mass: 180.947880
    reduced_to: 60

supercell:
  lattice:
  - [    16.915529440000000,     0.000000000000000,    -0.019432620000000 ] # a
  - [     0.000000000000000,     8.470724390000001,     0.000000000000000 ] # b
  - [    -4.203193680000000,     0.000000000000000,     8.260863940000000 ] # c
  points:
  - symbol: Li # 1
    coordinates: [  0.090979950000000,  0.876195550000000,  0.864916100000000 ]
    mass: 6.941000
    reduced_to: 1
  - symbol: Li # 2
    coordinates: [  0.590979950000000,  0.876195550000000,  0.864916100000000 ]
    mass: 6.941000
    reduced_to: 1
  - symbol: Li # 3
    coordinates: [  0.409020050000000,  0.123804450000000,  0.135083900000000 ]
    mass: 6.941000
    reduced_to: 3
  - symbol: Li # 4
    coordinates: [  0.909020050000000,  0.123804450000000,  0.135083900000000 ]
    mass: 6.941000
    reduced_to: 3
  - symbol: Li # 5
    coordinates: [  0.090979950000000,  0.123804450000000,  0.364916100000000 ]
    mass: 6.941000
    reduced_to: 5
  - symbol: Li # 6
    coordinates: [  0.590979950000000,  0.123804450000000,  0.364916100000000 ]
    mass: 6.941000
    reduced_to: 5
  - symbol: Li # 7
    coordinates: [  0.409020050000000,  0.876195550000000,  0.635083900000000 ]
    mass: 6.941000
    reduced_to: 7
  - symbol: Li # 8
    coordinates: [  0.909020050000000,  0.876195550000000,  0.635083900000000 ]
    mass: 6.941000
    reduced_to: 7
  - symbol: Li # 9
    coordinates: [  0.156850775000000,  0.881424150000000,  0.615167200000000 ]
    mass: 6.941000
    reduced_to: 9
  - symbol: Li # 10
    coordinates: [  0.656850775000000,  0.881424150000000,  0.615167200000000 ]
    mass: 6.941000
    reduced_to: 9
  - symbol: Li # 11
    coordinates: [  0.343149225000000,  0.881424150000000,  0.884832800000000 ]
    mass: 6.941000
    reduced_to: 11
  - symbol: Li # 12
    coordinates: [  0.843149225000000,  0.881424150000000,  0.884832800000000 ]
    mass: 6.941000
    reduced_to: 11
  - symbol: Li # 13
    coordinates: [  0.343149225000000,  0.118575850000000,  0.384832800000000 ]
    mass: 6.941000
    reduced_to: 13
  - symbol: Li # 14
    coordinates: [  0.843149225000000,  0.118575850000000,  0.384832800000000 ]
    mass: 6.941000
    reduced_to: 13
  - symbol: Li # 15
    coordinates: [  0.156850775000000,  0.118575850000000,  0.115167200000000 ]
    mass: 6.941000
    reduced_to: 15
  - symbol: Li # 16
    coordinates: [  0.656850775000000,  0.118575850000000,  0.115167200000000 ]
    mass: 6.941000
    reduced_to: 15
  - symbol: Li # 17
    coordinates: [  0.271097240000000,  0.896675370000000,  0.125116570000000 ]
    mass: 6.941000
    reduced_to: 17
  - symbol: Li # 18
    coordinates: [  0.771097240000000,  0.896675370000000,  0.125116570000000 ]
    mass: 6.941000
    reduced_to: 17
  - symbol: Li # 19
    coordinates: [  0.228902760000000,  0.896675370000000,  0.374883430000000 ]
    mass: 6.941000
    reduced_to: 19
  - symbol: Li # 20
    coordinates: [  0.728902760000000,  0.896675370000000,  0.374883430000000 ]
    mass: 6.941000
    reduced_to: 19
  - symbol: Li # 21
    coordinates: [  0.228902760000000,  0.103324630000000,  0.874883430000000 ]
    mass: 6.941000
    reduced_to: 21
  - symbol: Li # 22
    coordinates: [  0.728902760000000,  0.103324630000000,  0.874883430000000 ]
    mass: 6.941000
    reduced_to: 21
  - symbol: Li # 23
    coordinates: [  0.271097240000000,  0.103324630000000,  0.625116570000000 ]
    mass: 6.941000
    reduced_to: 23
  - symbol: Li # 24
    coordinates: [  0.771097240000000,  0.103324630000000,  0.625116570000000 ]
    mass: 6.941000
    reduced_to: 23
  - symbol: Li # 25
    coordinates: [  0.340979950000000,  0.376195550000000,  0.864916100000000 ]
    mass: 6.941000
    reduced_to: 1
  - symbol: Li # 26
    coordinates: [  0.840979950000000,  0.376195550000000,  0.864916100000000 ]
    mass: 6.941000
    reduced_to: 1
  - symbol: Li # 27
    coordinates: [  0.159020050000000,  0.623804450000000,  0.135083900000000 ]
    mass: 6.941000
    reduced_to: 3
  - symbol: Li # 28
    coordinates: [  0.659020050000000,  0.623804450000000,  0.135083900000000 ]
    mass: 6.941000
    reduced_to: 3
  - symbol: Li # 29
    coordinates: [  0.340979950000000,  0.623804450000000,  0.364916100000000 ]
    mass: 6.941000
    reduced_to: 5
  - symbol: Li # 30
    coordinates: [  0.840979950000000,  0.623804450000000,  0.364916100000000 ]
    mass: 6.941000
    reduced_to: 5
  - symbol: Li # 31
    coordinates: [  0.159020050000000,  0.376195550000000,  0.635083900000000 ]
    mass: 6.941000
    reduced_to: 7
  - symbol: Li # 32
    coordinates: [  0.659020050000000,  0.376195550000000,  0.635083900000000 ]
    mass: 6.941000
    reduced_to: 7
  - symbol: Li # 33
    coordinates: [  0.406850775000000,  0.381424150000000,  0.615167200000000 ]
    mass: 6.941000
    reduced_to: 9
  - symbol: Li # 34
    coordinates: [  0.906850775000000,  0.381424150000000,  0.615167200000000 ]
    mass: 6.941000
    reduced_to: 9
  - symbol: Li # 35
    coordinates: [  0.093149225000000,  0.381424150000000,  0.884832800000000 ]
    mass: 6.941000
    reduced_to: 11
  - symbol: Li # 36
    coordinates: [  0.593149225000000,  0.381424150000000,  0.884832800000000 ]
    mass: 6.941000
    reduced_to: 11
  - symbol: Li # 37
    coordinates: [  0.093149225000000,  0.618575850000000,  0.384832800000000 ]
    mass: 6.941000
    reduced_to: 13
  - symbol: Li # 38
    coordinates: [  0.593149225000000,  0.618575850000000,  0.384832800000000 ]
    mass: 6.941000
    reduced_to: 13
  - symbol: Li # 39
    coordinates: [  0.406850775000000,  0.618575850000000,  0.115167200000000 ]
    mass: 6.941000
    reduced_to: 15
  - symbol: Li # 40
    coordinates: [  0.906850775000000,  0.618575850000000,  0.115167200000000 ]
    mass: 6.941000
    reduced_to: 15
  - symbol: Li # 41
    coordinates: [  0.021097240000000,  0.396675370000000,  0.125116570000000 ]
    mass: 6.941000
    reduced_to: 17
  - symbol: Li # 42
    coordinates: [  0.521097240000000,  0.396675370000000,  0.125116570000000 ]
    mass: 6.941000
    reduced_to: 17
  - symbol: Li # 43
    coordinates: [  0.478902760000000,  0.396675370000000,  0.374883430000000 ]
    mass: 6.941000
    reduced_to: 19
  - symbol: Li # 44
    coordinates: [  0.978902760000000,  0.396675370000000,  0.374883430000000 ]
    mass: 6.941000
    reduced_to: 19
  - symbol: Li # 45
    coordinates: [  0.478902760000000,  0.603324630000000,  0.874883430000000 ]
    mass: 6.941000
    reduced_to: 21
  - symbol: Li # 46
    coordinates: [  0.978902760000000,  0.603324630000000,  0.874883430000000 ]
    mass: 6.941000
    reduced_to: 21
  - symbol: Li # 47
    coordinates: [  0.021097240000000,  0.603324630000000,  0.625116570000000 ]
    mass: 6.941000
    reduced_to: 23
  - symbol: Li # 48
    coordinates: [  0.521097240000000,  0.603324630000000,  0.625116570000000 ]
    mass: 6.941000
    reduced_to: 23
  - symbol: O  # 49
    coordinates: [  0.220805120000000,  0.389922200000000,  0.886658400000000 ]
    mass: 15.999400
    reduced_to: 49
  - symbol: O  # 50
    coordinates: [  0.720805120000000,  0.389922200000000,  0.886658400000000 ]
    mass: 15.999400
    reduced_to: 49
  - symbol: O  # 51
    coordinates: [  0.220805120000000,  0.610077800000000,  0.386658400000000 ]
    mass: 15.999400
    reduced_to: 51
  - symbol: O  # 52
    coordinates: [  0.720805120000000,  0.610077800000000,  0.386658400000000 ]
    mass: 15.999400
    reduced_to: 51
  - symbol: O  # 53
    coordinates: [  0.279194880000000,  0.389922200000000,  0.613341600000000 ]
    mass: 15.999400
    reduced_to: 53
  - symbol: O  # 54
    coordinates: [  0.779194880000000,  0.389922200000000,  0.613341600000000 ]
    mass: 15.999400
    reduced_to: 53
  - symbol: O  # 55
    coordinates: [  0.279194880000000,  0.610077800000000,  0.113341600000000 ]
    mass: 15.999400
    reduced_to: 55
  - symbol: O  # 56
    coordinates: [  0.779194880000000,  0.610077800000000,  0.113341600000000 ]
    mass: 15.999400
    reduced_to: 55
  - symbol: O  # 57
    coordinates: [  0.083266560000000,  0.876437790000000,  0.363294910000000 ]
    mass: 15.999400
    reduced_to: 57
  - symbol: O  # 58
    coordinates: [  0.583266560000000,  0.876437790000000,  0.363294910000000 ]
    mass: 15.999400
    reduced_to: 57
  - symbol: O  # 59
    coordinates: [  0.416733440000000,  0.876437790000000,  0.136705090000000 ]
    mass: 15.999400
    reduced_to: 59
  - symbol: O  # 60
    coordinates: [  0.916733440000000,  0.876437790000000,  0.136705090000000 ]
    mass: 15.999400
    reduced_to: 59
  - symbol: O  # 61
    coordinates: [  0.416733440000000,  0.123562210000000,  0.636705090000000 ]
    mass: 15.999400
    reduced_to: 61
  - symbol: O  # 62
    coordinates: [  0.916733440000000,  0.123562210000000,  0.636705090000000 ]
    mass: 15.999400
    reduced_to: 61
  - symbol: O  # 63
    coordinates: [  0.083266560000000,  0.123562210000000,  0.863294910000000 ]
    mass: 15.999400
    reduced_to: 63
  - symbol: O  # 64
    coordinates: [  0.583266560000000,  0.123562210000000,  0.863294910000000 ]
    mass: 15.999400
    reduced_to: 63
  - symbol: O  # 65
    coordinates: [  0.219711000000000,  0.863787300000000,  0.881414500000000 ]
    mass: 15.999400
    reduced_to: 65
  - symbol: O  # 66
    coordinates: [  0.719711000000000,  0.863787300000000,  0.881414500000000 ]
    mass: 15.999400
    reduced_to: 65
  - symbol: O  # 67
    coordinates: [  0.280289000000000,  0.863787300000000,  0.618585500000000 ]
    mass: 15.999400
    reduced_to: 67
  - symbol: O  # 68
    coordinates: [  0.780289000000000,  0.863787300000000,  0.618585500000000 ]
    mass: 15.999400
    reduced_to: 67
  - symbol: O  # 69
    coordinates: [  0.280289000000000,  0.136212700000000,  0.118585500000000 ]
    mass: 15.999400
    reduced_to: 69
  - symbol: O  # 70
    coordinates: [  0.780289000000000,  0.136212700000000,  0.118585500000000 ]
    mass: 15.999400
    reduced_to: 69
  - symbol: O  # 71
    coordinates: [  0.219711000000000,  0.136212700000000,  0.381414500000000 ]
    mass: 15.999400
    reduced_to: 71
  - symbol: O  # 72
    coordinates: [  0.719711000000000,  0.136212700000000,  0.381414500000000 ]
    mass: 15.999400
    reduced_to: 71
  - symbol: O  # 73
    coordinates: [  0.347460140000000,  0.874789810000000,  0.368469800000000 ]
    mass: 15.999400
    reduced_to: 73
  - symbol: O  # 74
    coordinates: [  0.847460140000000,  0.874789810000000,  0.368469800000000 ]
    mass: 15.999400
    reduced_to: 73
  - symbol: O  # 75
    coordinates: [  0.152539860000000,  0.874789810000000,  0.131530200000000 ]
    mass: 15.999400
    reduced_to: 75
  - symbol: O  # 76
    coordinates: [  0.652539860000000,  0.874789810000000,  0.131530200000000 ]
    mass: 15.999400
    reduced_to: 75
  - symbol: O  # 77
    coordinates: [  0.152539860000000,  0.125210190000000,  0.631530200000000 ]
    mass: 15.999400
    reduced_to: 77
  - symbol: O  # 78
    coordinates: [  0.652539860000000,  0.125210190000000,  0.631530200000000 ]
    mass: 15.999400
    reduced_to: 77
  - symbol: O  # 79
    coordinates: [  0.347460140000000,  0.125210190000000,  0.868469800000000 ]
    mass: 15.999400
    reduced_to: 79
  - symbol: O  # 80
    coordinates: [  0.847460140000000,  0.125210190000000,  0.868469800000000 ]
    mass: 15.999400
    reduced_to: 79
  - symbol: O  # 81
    coordinates: [  0.470805120000000,  0.889922200000000,  0.886658400000000 ]
    mass: 15.999400
    reduced_to: 49
  - symbol: O  # 82
    coordinates: [  0.970805120000000,  0.889922200000000,  0.886658400000000 ]
    mass: 15.999400
    reduced_to: 49
  - symbol: O  # 83
    coordinates: [  0.470805120000000,  0.110077800000000,  0.386658400000000 ]
    mass: 15.999400
    reduced_to: 51
  - symbol: O  # 84
    coordinates: [  0.970805120000000,  0.110077800000000,  0.386658400000000 ]
    mass: 15.999400
    reduced_to: 51
  - symbol: O  # 85
    coordinates: [  0.029194880000000,  0.889922200000000,  0.613341600000000 ]
    mass: 15.999400
    reduced_to: 53
  - symbol: O  # 86
    coordinates: [  0.529194880000000,  0.889922200000000,  0.613341600000000 ]
    mass: 15.999400
    reduced_to: 53
  - symbol: O  # 87
    coordinates: [  0.029194880000000,  0.110077800000000,  0.113341600000000 ]
    mass: 15.999400
    reduced_to: 55
  - symbol: O  # 88
    coordinates: [  0.529194880000000,  0.110077800000000,  0.113341600000000 ]
    mass: 15.999400
    reduced_to: 55
  - symbol: O  # 89
    coordinates: [  0.333266560000000,  0.376437790000000,  0.363294910000000 ]
    mass: 15.999400
    reduced_to: 57
  - symbol: O  # 90
    coordinates: [  0.833266560000000,  0.376437790000000,  0.363294910000000 ]
    mass: 15.999400
    reduced_to: 57
  - symbol: O  # 91
    coordinates: [  0.166733440000000,  0.376437790000000,  0.136705090000000 ]
    mass: 15.999400
    reduced_to: 59
  - symbol: O  # 92
    coordinates: [  0.666733440000000,  0.376437790000000,  0.136705090000000 ]
    mass: 15.999400
    reduced_to: 59
  - symbol: O  # 93
    coordinates: [  0.166733440000000,  0.623562210000000,  0.636705090000000 ]
    mass: 15.999400
    reduced_to: 61
  - symbol: O  # 94
    coordinates: [  0.666733440000000,  0.623562210000000,  0.636705090000000 ]
    mass: 15.999400
    reduced_to: 61
  - symbol: O  # 95
    coordinates: [  0.333266560000000,  0.623562210000000,  0.863294910000000 ]
    mass: 15.999400
    reduced_to: 63
  - symbol: O  # 96
    coordinates: [  0.833266560000000,  0.623562210000000,  0.863294910000000 ]
    mass: 15.999400
    reduced_to: 63
  - symbol: O  # 97
    coordinates: [  0.469711000000000,  0.363787300000000,  0.881414500000000 ]
    mass: 15.999400
    reduced_to: 65
  - symbol: O  # 98
    coordinates: [  0.969711000000000,  0.363787300000000,  0.881414500000000 ]
    mass: 15.999400
    reduced_to: 65
  - symbol: O  # 99
    coordinates: [  0.030289000000000,  0.363787300000000,  0.618585500000000 ]
    mass: 15.999400
    reduced_to: 67
  - symbol: O  # 100
    coordinates: [  0.530289000000000,  0.363787300000000,  0.618585500000000 ]
    mass: 15.999400
    reduced_to: 67
  - symbol: O  # 101
    coordinates: [  0.030289000000000,  0.636212700000000,  0.118585500000000 ]
    mass: 15.999400
    reduced_to: 69
  - symbol: O  # 102
    coordinates: [  0.530289000000000,  0.636212700000000,  0.118585500000000 ]
    mass: 15.999400
    reduced_to: 69
  - symbol: O  # 103
    coordinates: [  0.469711000000000,  0.636212700000000,  0.381414500000000 ]
    mass: 15.999400
    reduced_to: 71
  - symbol: O  # 104
    coordinates: [  0.969711000000000,  0.636212700000000,  0.381414500000000 ]
    mass: 15.999400
    reduced_to: 71
  - symbol: O  # 105
    coordinates: [  0.097460140000000,  0.374789810000000,  0.368469800000000 ]
    mass: 15.999400
    reduced_to: 73
  - symbol: O  # 106
    coordinates: [  0.597460140000000,  0.374789810000000,  0.368469800000000 ]
    mass: 15.999400
    reduced_to: 73
  - symbol: O  # 107
    coordinates: [  0.402539860000000,  0.374789810000000,  0.131530200000000 ]
    mass: 15.999400
    reduced_to: 75
  - symbol: O  # 108
    coordinates: [  0.902539860000000,  0.374789810000000,  0.131530200000000 ]
    mass: 15.999400
    reduced_to: 75
  - symbol: O  # 109
    coordinates: [  0.402539860000000,  0.625210190000000,  0.631530200000000 ]
    mass: 15.999400
    reduced_to: 77
  - symbol: O  # 110
    coordinates: [  0.902539860000000,  0.625210190000000,  0.631530200000000 ]
    mass: 15.999400
    reduced_to: 77
  - symbol: O  # 111
    coordinates: [  0.097460140000000,  0.625210190000000,  0.868469800000000 ]
    mass: 15.999400
    reduced_to: 79
  - symbol: O  # 112
    coordinates: [  0.597460140000000,  0.625210190000000,  0.868469800000000 ]
    mass: 15.999400