# epsilon and Z* of atoms 1 9
   3.39995759    0.00000000    0.00000000    0.00000000    3.39995759    0.00000000    0.00000000    0.00000000    3.39995759 
  -1.60671272    0.00000000    0.00000000    0.00000000   -1.60671272    0.00000000    0.00000000    0.00000000   -1.60671272 
   3.21342544    0.00000000    0.00000000    0.00000000    3.21342544    0.00000000    0.00000000    0.00000000    3.21342544 
