natom:   96
displacements:
- atom:    1
  displacement:
    [   0.0100000000000000,  0.0000000000000000,  0.0000000000000000 ]
- atom:   65
  displacement:
    [   0.0100000000000000,  0.0000000000000000,  0.0000000000000000 ]
lattice:
- [    11.7857995800000008,     0.0000000000000000,     0.0000000000000000 ] # a
- [     0.0000000000000000,    11.7857995800000008,     0.0000000000000000 ] # b
- [     0.0000000000000000,     0.0000000000000000,    11.7857995800000008 ] # c
atoms:
- symbol: F  # 1
  position: [  0.3750000000000000,  0.1250000000000000,  0.1250000000000000 ]
  mass: 18.998403
- symbol: F  # 2
  position: [  0.8750000000000000,  0.1250000000000000,  0.1250000000000000 ]
  mass: 18.998403
- symbol: F  # 3
  position: [  0.3750000000000000,  0.6250000000000000,  0.1250000000000000 ]
  mass: 18.998403
- symbol: F  # 4
  position: [  0.8750000000000000,  0.6250000000000000,  0.1250000000000000 ]
  mass: 18.998403
- symbol: F  # 5
  position: [  0.3750000000000000,  0.1250000000000000,  0.6250000000000000 ]
  mass: 18.998403
- symbol: F  # 6
  position: [  0.8750000000000000,  0.1250000000000000,  0.6250000000000000 ]
  mass: 18.998403
- symbol: F  # 7
  position: [  0.3750000000000000,  0.6250000000000000,  0.6250000000000000 ]
  mass: 18.998403
- symbol: F  # 8
  position: [  0.8750000000000000,  0.6250000000000000,  0.6250000000000000 ]
  mass: 18.998403
- symbol: F  # 9
  position: [  0.3750000000000000,  0.1250000000000000,  0.3750000000000000 ]
  mass: 18.998403
- symbol: F  # 10
  position: [  0.8750000000000000,  0.1250000000000000,  0.3750000000000000 ]
  mass: 18.998403
- symbol: F  # 11
  position: [  0.3750000000000000,  0.6250000000000000,  0.3750000000000000 ]
  mass: 18.998403
- symbol: F  # 12
  position: [  0.8750000000000000,  0.6250000000000000,  0.3750000000000000 ]
  mass: 18.998403
- symbol: F  # 13
  position: [  0.3750000000000000,  0.1250000000000000,  0.8750000000000000 ]
  mass: 18.998403
- symbol: F  # 14
  position: [  0.8750000000000000,  0.1250000000000000,  0.8750000000000000 ]
  mass: 18.998403
- symbol: F  # 15
  position: [  0.3750000000000000,  0.6250000000000000,  0.8750000000000000 ]
  mass: 18.998403
- symbol: F  # 16
  position: [  0.8750000000000000,  0.6250000000000000,  0.8750000000000000 ]
  mass: 18.998403
- symbol: F  # 17
  position: [  0.3750000000000000,  0.3750000000000000,  0.3750000000000000 ]
  mass: 18.998403
- symbol: F  # 18
  position: [  0.8750000000000000,  0.3750000000000000,  0.3750000000000000 ]
  mass: 18.998403
- symbol: F  # 19
  position: [  0.3750000000000000,  0.8750000000000000,  0.3750000000000000 ]
  mass: 18.998403
- symbol: F  # 20
  position: [  0.8750000000000000,  0.8750000000000000,  0.3750000000000000 ]
  mass: 18.998403
- symbol: F  # 21
  position: [  0.3750000000000000,  0.3750000000000000,  0.8750000000000000 ]
  mass: 18.998403
- symbol: F  # 22
  position: [  0.8750000000000000,  0.3750000000000000,  0.8750000000000000 ]
  mass: 18.998403
- symbol: F  # 23
  position: [  0.3750000000000000,  0.8750000000000000,  0.8750000000000000 ]
  mass: 18.998403
- symbol: F  # 24
  position: [  0.8750000000000000,  0.8750000000000000,  0.8750000000000000 ]
  mass: 18.998403
- symbol: F  # 25
  position: [  0.3750000000000000,  0.3750000000000000,  0.1250000000000000 ]
  mass: 18.998403
- symbol: F  # 26
  position: [  0.8750000000000000,  0.3750000000000000,  0.1250000000000000 ]
  mass: 18.998403
- symbol: F  # 27
  position: [  0.3750000000000000,  0.8750000000000000,  0.1250000000000000 ]
  mass: 18.998403
- symbol: F  # 28
  position: [  0.8750000000000000,  0.8750000000000000,  0.1250000000000000 ]
  mass: 18.998403
- symbol: F  # 29
  position: [  0.3750000000000000,  0.3750000000000000,  0.6250000000000000 ]
  mass: 18.998403
- symbol: F  # 30
  position: [  0.8750000000000000,  0.3750000000000000,  0.6250000000000000 ]
  mass: 18.998403
- symbol: F  # 31
  position: [  0.3750000000000000,  0.8750000000000000,  0.6250000000000000 ]
  mass: 18.998403
- symbol: F  # 32
  position: [  0.8750000000000000,  0.8750000000000000,  0.6250000000000000 ]
  mass: 18.998403
- symbol: F  # 33
  position: [  0.1250000000000000,  0.1250000000000000,  0.3750000000000000 ]
  mass: 18.998403
- symbol: F  # 34
  position: [  0.6250000000000000,  0.1250000000000000,  0.3750000000000000 ]
  mass: 18.998403
- symbol: F  # 35
  position: [  0.1250000000000000,  0.6250000000000000,  0.3750000000000000 ]
  mass: 18.998403
- symbol: F  # 36
  position: [  0.6250000000000000,  0.6250000000000000,  0.3750000000000000 ]
  mass: 18.998403
- symbol: F  # 37
  position: [  0.1250000000000000,  0.1250000000000000,  0.8750000000000000 ]
  mass: 18.998403
- symbol: F  # 38
  position: [  0.6250000000000000,  0.1250000000000000,  0.8750000000000000 ]
  mass: 18.998403
- symbol: F  # 39
  position: [  0.1250000000000000,  0.6250000000000000,  0.8750000000000000 ]
  mass: 18.998403
- symbol: F  # 40
  position: [  0.6250000000000000,  0.6250000000000000,  0.8750000000000000 ]
  mass: 18.998403
- symbol: F  # 41
  position: [  0.1250000000000000,  0.1250000000000000,  0.1250000000000000 ]
  mass: 18.998403
- symbol: F  # 42
  position: [  0.6250000000000000,  0.1250000000000000,  0.1250000000000000 ]
  mass: 18.998403
- symbol: F  # 43
  position: [  0.1250000000000000,  0.6250000000000000,  0.1250000000000000 ]
  mass: 18.998403
- symbol: F  # 44
  position: [  0.6250000000000000,  0.6250000000000000,  0.1250000000000000 ]
  mass: 18.998403
- symbol: F  # 45
  position: [  0.1250000000000000,  0.1250000000000000,  0.6250000000000000 ]
  mass: 18.998403
- symbol: F  # 46
  position: [  0.6250000000000000,  0.1250000000000000,  0.6250000000000000 ]
  mass: 18.998403
- symbol: F  # 47
  position: [  0.1250000000000000,  0.6250000000000000,  0.6250000000000000 ]
  mass: 18.998403
- symbol: F  # 48
  position: [  0.6250000000000000,  0.6250000000000000,  0.6250000000000000 ]
  mass: 18.998403
- symbol: F  # 49
  position: [  0.1250000000000000,  0.3750000000000000,  0.1250000000000000 ]
  mass: 18.998403
- symbol: F  # 50
  position: [  0.6250000000000000,  0.3750000000000000,  0.1250000000000000 ]
  mass: 18.998403
- symbol: F  # 51
  position: [  0.1250000000000000,  0.8750000000000000,  0.1250000000000000 ]
  mass: 18.998403
- symbol: F  # 52
  position: [  0.6250000000000000,  0.8750000000000000,  0.1250000000000000 ]
  mass: 18.998403
- symbol: F  # 53
  position: [  0.1250000000000000,  0.3750000000000000,  0.6250000000000000 ]
  mass: 18.998403
- symbol: F  # 54
  position: [  0.6250000000000000,  0.3750000000000000,  0.6250000000000000 ]
  mass: 18.998403
- symbol: F  # 55
  position: [  0.1250000000000000,  0.8750000000000000,  0.6250000000000000 ]
  mass: 18.998403
- symbol: F  # 56
  position: [  0.6250000000000000,  0.8750000000000000,  0.6250000000000000 ]
  mass: 18.998403
- symbol: F  # 57
  position: [  0.1250000000000000,  0.3750000000000000,  0.3750000000000000 ]
  mass: 18.998403
- symbol: F  # 58
  position: [  0.6250000000000000,  0.3750000000000000,  0.3750000000000000 ]
  mass: 18.998403
- symbol: F  # 59
  position: [  0.1250000000000000,  0.8750000000000000,  0.3750000000000000 ]
  mass: 18.998403
- symbol: F  # 60
  position: [  0.6250000000000000,  0.8750000000000000,  0.3750000000000000 ]
  mass: 18.998403
- symbol: F  # 61
  position: [  0.1250000000000000,  0.3750000000000000,  0.8750000000000000 ]
  mass: 18.998403
- symbol: F  # 62
  position: [  0.6250000000000000,  0.3750000000000000,  0.8750000000000000 ]
  mass: 18.998403
- symbol: F  # 63
  position: [  0.1250000000000000,  0.8750000000000000,  0.8750000000000000 ]
  mass: 18.998403
- symbol: F  # 64
  position: [  0.6250000000000000,  0.8750000000000000,  0.8750000000000000 ]
  mass: 18.998403
- symbol: Pb # 65
  position: [  0.0000000000000000,  0.0000000000000000,  0.0000000000000000 ]
  mass: 207.200000
- symbol: Pb # 66
  position: [  0.5000000000000000,  0.0000000000000000,  0.0000000000000000 ]
  mass: 207.200000
- symbol: Pb # 67
  position: [  0.0000000000000000,  0.5000000000000000,  0.0000000000000000 ]
  mass: 207.200000
- symbol: Pb # 68
  position: [  0.5000000000000000,  0.5000000000000000,  0.0000000000000000 ]
  mass: 207.200000
- symbol: Pb # 69
  position: [  0.0000000000000000,  0.0000000000000000,  0.5000000000000000 ]
  mass: 207.200000
- symbol: Pb # 70
  position: [  0.5000000000000000,  0.0000000000000000,  0.5000000000000000 ]
  mass: 207.200000
- symbol: Pb # 71
  position: [  0.0000000000000000,  0.5000000000000000,  0.5000000000000000 ]
  mass: 207.200000
- symbol: Pb # 72
  position: [  0.5000000000000000,  0.5000000000000000,  0.5000000000000000 ]
  mass: 207.200000
- symbol: Pb # 73
  position: [  0.0000000000000000,  0.2500000000000000,  0.2500000000000000 ]
  mass: 207.200000
- symbol: Pb # 74
  position: [  0.5000000000000000,  0.2500000000000000,  0.2500000000000000 ]
  mass: 207.200000
- symbol: Pb # 75
  position: [  0.0000000000000000,  0.7500000000000000,  0.2500000000000000 ]
  mass: 207.200000
- symbol: Pb # 76
  position: [  0.5000000000000000,  0.7500000000000000,  0.2500000000000000 ]
  mass: 207.200000
- symbol: Pb # 77
  position: [  0.0000000000000000,  0.2500000000000000,  0.7500000000000000 ]
  mass: 207.200000
- symbol: Pb # 78
  position: [  0.5000000000000000,  0.2500000000000000,  0.7500000000000000 ]
  mass: 207.200000
- symbol: Pb # 79
  position: [  0.0000000000000000,  0.7500000000000000,  0.7500000000000000 ]
  mass: 207.200000
- symbol: Pb # 80
  position: [  0.5000000000000000,  0.7500000000000000,  0.7500000000000000 ]
  mass: 207.200000
- symbol: Pb # 81
  position: [  0.2500000000000000,  0.0000000000000000,  0.2500000000000000 ]
  mass: 207.200000
- symbol: Pb # 82
  position: [  0.7500000000000000,  0.0000000000000000,  0.2500000000000000 ]
  mass: 207.200000
- symbol: Pb # 83
  position: [  0.2500000000000000,  0.5000000000000000,  0.2500000000000000 ]
  mass: 207.200000
- symbol: Pb # 84
  position: [  0.7500000000000000,  0.5000000000000000,  0.2500000000000000 ]
  mass: 207.200000
- symbol: Pb # 85
  position: [  0.2500000000000000,  0.0000000000000000,  0.7500000000000000 ]
  mass: 207.200000
- symbol: Pb # 86
  position: [  0.7500000000000000,  0.0000000000000000,  0.7500000000000000 ]
  mass: 207.200000
- symbol: Pb # 87
  position: [  0.2500000000000000,  0.5000000000000000,  0.7500000000000000 ]
  mass: 207.200000
- symbol: Pb # 88
  position: [  0.7500000000000000,  0.5000000000000000,  0.7500000000000000 ]
  mass: 207.200000
- symbol: Pb # 89
  position: [  0.2500000000000000,  0.2500000000000000,  0.0000000000000000 ]
  mass: 207.200000
- symbol: Pb # 90
  position: [  0.7500000000000000,  0.2500000000000000,  0.0000000000000000 ]
  mass: 207.200000
- symbol: Pb # 91
  position: [  0.2500000000000000,  0.7500000000000000,  0.0000000000000000 ]
  mass: 207.200000
- symbol: Pb # 92
  position: [  0.7500000000000000,  0.7500000000000000,  0.0000000000000000 ]
  mass: 207.200000
- symbol: Pb # 93
  position: [  0.2500000000000000,  0.2500000000000000,  0.5000000000000000 ]
  mass: 207.200000
- symbol: Pb # 94
  position: [  0.7500000000000000,  0.2500000000000000,  0.5000000000000000 ]
  mass: 207.200000
- symbol: Pb # 95
  position: [  0.2500000000000000,  0.7500000000000000,  0.5000000000000000 ]
  mass: 207.200000
- symbol: Pb # 96
  position: [  0.7500000000000000,  0.7500000000000000,  0.5000000000000000 ]
  mass: 207.200000