96   
2    

1    
  0.0100000000000000   0.0000000000000000   0.0000000000000000
  -0.0281033200    0.0000000000    0.0000000000
   0.0014558700    0.0000000000    0.0000000000
  -0.0002926700    0.0000000000    0.0000000000
   0.0009706600    0.0000000000    0.0000000000
  -0.0002926700    0.0000000000    0.0000000000
   0.0009706600    0.0000000000    0.0000000000
  -0.0010006300    0.0000000000    0.0000000000
   0.0002969700    0.0000000000    0.0000000000
  -0.0028011000   -0.0014244100   -0.0000181100
   0.0010245000    0.0002527200    0.0000007500
  -0.0005727000    0.0002522700   -0.0000001800
   0.0005586400    0.0002679900   -0.0000000700
  -0.0028011000    0.0014244100    0.0000181100
   0.0010245000   -0.0002527200   -0.0000007500
  -0.0005727000   -0.0002522700    0.0000001800
   0.0005586400   -0.0002679900    0.0000000700
  -0.0028968400    0.0015940100    0.0015940100
   0.0008786600   -0.0003015900   -0.0003015900
  -0.0028827800    0.0015865000   -0.0015865000
   0.0008800500   -0.0003026200    0.0003026200
  -0.0028827800   -0.0015865000    0.0015865000
   0.0008800500    0.0003026200   -0.0003026200
  -0.0028968400   -0.0015940100   -0.0015940100
   0.0008786600    0.0003015900    0.0003015900
  -0.0028011000   -0.0000181100   -0.0014244100
   0.0010245000    0.0000007500    0.0002527200
  -0.0028011000    0.0000181100    0.0014244100
   0.0010245000   -0.0000007500   -0.0002527200
  -0.0005727000   -0.0000001800    0.0002522700
   0.0005586400   -0.0000000700    0.0002679900
  -0.0005727000    0.0000001800   -0.0002522700
   0.0005586400    0.0000000700   -0.0002679900
   0.0010480000   -0.0015932600   -0.0013193100
   0.0010417100   -0.0015873900    0.0013142000
  -0.0000022500    0.0003011500    0.0000155600
  -0.0000040500    0.0003032600   -0.0000175000
   0.0010480000    0.0015932600    0.0013193100
   0.0010417100    0.0015873900   -0.0013142000
  -0.0000022500   -0.0003011500   -0.0000155600
  -0.0000040500   -0.0003032600    0.0000175000
   0.0063847500    0.0000000000    0.0000000000
   0.0065275100    0.0000000000    0.0000000000
  -0.0002939700    0.0000000000    0.0000000000
  -0.0002944000    0.0000000000    0.0000000000
  -0.0002939700    0.0000000000    0.0000000000
  -0.0002944000    0.0000000000    0.0000000000
   0.0003026600    0.0000000000    0.0000000000
   0.0003024900    0.0000000000    0.0000000000
   0.0010480000   -0.0013193100   -0.0015932600
   0.0010417100    0.0013142000   -0.0015873900
   0.0010480000    0.0013193100    0.0015932600
   0.0010417100   -0.0013142000    0.0015873900
  -0.0000022500    0.0000155600    0.0003011500
  -0.0000040500   -0.0000175000    0.0003032600
  -0.0000022500   -0.0000155600   -0.0003011500
  -0.0000040500    0.0000175000   -0.0003032600
  -0.0002547800   -0.0002868100   -0.0002868100
   0.0034825400    0.0032009200    0.0032009200
   0.0034737800    0.0031996100   -0.0031996100
  -0.0002577800   -0.0002882000    0.0002882000
   0.0034737800   -0.0031996100    0.0031996100
  -0.0002577800    0.0002882000   -0.0002882000
  -0.0002547800    0.0002868100    0.0002868100
   0.0034825400   -0.0032009200   -0.0032009200
  -0.0027565000   -0.0012437300   -0.0012437300
   0.0049294800    0.0006216400    0.0006216400
  -0.0016502500    0.0011145600    0.0003548800
   0.0014430800   -0.0000807000    0.0008753800
  -0.0016502500    0.0003548800    0.0011145600
   0.0014430800    0.0008753800   -0.0000807000
  -0.0005728800   -0.0000155100   -0.0000155100
   0.0008269800   -0.0011512200   -0.0011512200
  -0.0027565000    0.0012437300    0.0012437300
   0.0049294800   -0.0006216400   -0.0006216400
  -0.0016502500   -0.0011145600   -0.0003548800
   0.0014430800    0.0000807000   -0.0008753800
  -0.0016502500   -0.0003548800   -0.0011145600
   0.0014430800   -0.0008753800    0.0000807000
  -0.0005728800    0.0000155100    0.0000155100
   0.0008269800    0.0011512200    0.0011512200
   0.0047549500   -0.0007903600    0.0007903600
  -0.0027583600    0.0012538600   -0.0012538600
   0.0014317100    0.0000872400    0.0008823400
  -0.0016520500   -0.0011125700    0.0003493500
   0.0014317100   -0.0008823400   -0.0000872400
  -0.0016520500   -0.0003493500    0.0011125700
   0.0008274100    0.0011537700   -0.0011537700
  -0.0005771800    0.0000155400   -0.0000155400
   0.0047549500    0.0007903600   -0.0007903600
  -0.0027583600   -0.0012538600    0.0012538600
   0.0014317100   -0.0000872400   -0.0008823400
  -0.0016520500    0.0011125700   -0.0003493500
   0.0014317100    0.0008823400    0.0000872400
  -0.0016520500    0.0003493500   -0.0011125700
   0.0008274100   -0.0011537700    0.0011537700
  -0.0005771800   -0.0000155400    0.0000155400

65   
  0.0100000000000000   0.0000000000000000   0.0000000000000000
  -0.0027555500   -0.0000867600   -0.0000867600
   0.0047447200    0.0007968700    0.0007968700
  -0.0016512600    0.0011139100   -0.0011531300
   0.0014348100   -0.0012484000    0.0008781200
  -0.0016512600   -0.0011531300    0.0011139100
   0.0014348100    0.0008781200   -0.0012484000
  -0.0005720800   -0.0000148100   -0.0000148100
   0.0008270900    0.0003511400    0.0003511400
  -0.0016512600   -0.0011531300   -0.0011139100
   0.0014348100    0.0008781200    0.0012484000
  -0.0005720800   -0.0000148100    0.0000148100
   0.0008270900    0.0003511400   -0.0003511400
  -0.0027555500   -0.0000867600    0.0000867600
   0.0047447200    0.0007968700   -0.0007968700
  -0.0016512600    0.0011139100    0.0011531300
   0.0014348100   -0.0012484000   -0.0008781200
  -0.0005720800    0.0000148100    0.0000148100
   0.0008270900   -0.0003511400   -0.0003511400
  -0.0016512600    0.0011531300   -0.0011139100
   0.0014348100   -0.0008781200    0.0012484000
  -0.0016512600   -0.0011139100    0.0011531300
   0.0014348100    0.0012484000   -0.0008781200
  -0.0027555500    0.0000867600    0.0000867600
   0.0047447200   -0.0007968700   -0.0007968700
  -0.0016512600   -0.0011139100   -0.0011531300
   0.0014348100    0.0012484000    0.0008781200
  -0.0027555500    0.0000867600   -0.0000867600
   0.0047447200   -0.0007968700    0.0007968700
  -0.0005720800    0.0000148100   -0.0000148100
   0.0008270900   -0.0003511400    0.0003511400
  -0.0016512600    0.0011531300    0.0011139100
   0.0014348100   -0.0008781200   -0.0012484000
   0.0014400500   -0.0008805000   -0.0012485500
  -0.0016509500    0.0011515700    0.0011125300
   0.0008284500   -0.0003523300    0.0003523300
  -0.0005745000    0.0000165900   -0.0000165900
   0.0049408200   -0.0006139800    0.0006139800
  -0.0027556700    0.0000816200   -0.0000816200
   0.0014400500    0.0012485500    0.0008805000
  -0.0016509500   -0.0011125300   -0.0011515700
   0.0049408200   -0.0006139800   -0.0006139800
  -0.0027556700    0.0000816200    0.0000816200
   0.0014400500    0.0012485500   -0.0008805000
  -0.0016509500   -0.0011125300    0.0011515700
   0.0014400500   -0.0008805000    0.0012485500
  -0.0016509500    0.0011515700   -0.0011125300
   0.0008284500   -0.0003523300   -0.0003523300
  -0.0005745000    0.0000165900    0.0000165900
   0.0014400500   -0.0012485500   -0.0008805000
  -0.0016509500    0.0011125300    0.0011515700
   0.0049408200    0.0006139800   -0.0006139800
  -0.0027556700   -0.0000816200    0.0000816200
   0.0008284500    0.0003523300   -0.0003523300
  -0.0005745000   -0.0000165900    0.0000165900
   0.0014400500    0.0008805000    0.0012485500
  -0.0016509500   -0.0011515700   -0.0011125300
   0.0008284500    0.0003523300    0.0003523300
  -0.0005745000   -0.0000165900   -0.0000165900
   0.0014400500    0.0008805000   -0.0012485500
  -0.0016509500   -0.0011515700    0.0011125300
   0.0014400500   -0.0012485500    0.0008805000
  -0.0016509500    0.0011125300   -0.0011515700
   0.0049408200    0.0006139800    0.0006139800
  -0.0027556700   -0.0000816200   -0.0000816200
  -0.0561833800    0.0000000000    0.0000000000
   0.0067438900    0.0000000000    0.0000000000
  -0.0034093400    0.0000000000    0.0000000000
   0.0030785900    0.0000000000    0.0000000000
  -0.0034093400    0.0000000000    0.0000000000
   0.0030785900    0.0000000000    0.0000000000
  -0.0006429500    0.0000000000    0.0000000000
   0.0010341000    0.0000000000    0.0000000000
  -0.0091010700   -0.0000108500   -0.0000108500
   0.0033237500    0.0000033400    0.0000033400
  -0.0091010700    0.0000108500   -0.0000108500
   0.0033237500   -0.0000033400    0.0000033400
  -0.0091010700   -0.0000108500    0.0000108500
   0.0033237500    0.0000033400   -0.0000033400
  -0.0091010700    0.0000108500    0.0000108500
   0.0033237500   -0.0000033400   -0.0000033400
   0.0072053800    0.0000000000    0.0093530800
   0.0072025700    0.0000000000   -0.0093078900
  -0.0000171600    0.0000000000    0.0011941500
  -0.0000145900    0.0000000000   -0.0011976400
   0.0072053800    0.0000000000   -0.0093530800
   0.0072025700    0.0000000000    0.0093078900
  -0.0000171600    0.0000000000   -0.0011941500
  -0.0000145900    0.0000000000    0.0011976400
   0.0072053800    0.0093530800    0.0000000000
   0.0072025700   -0.0093078900    0.0000000000
   0.0072053800   -0.0093530800    0.0000000000
   0.0072025700    0.0093078900    0.0000000000
  -0.0000171600    0.0011941500    0.0000000000
  -0.0000145900   -0.0011976400    0.0000000000
  -0.0000171600   -0.0011941500    0.0000000000
  -0.0000145900    0.0011976400    0.0000000000
