phonopy:
  version: "2.21.2"
  frequency_unit_conversion_factor: 15.633302
  symmetry_tolerance: 1.00000e-05
  configuration:
    force_constants: "WRITE"
    dim: "2 0 0 0 2 0 0 0 2"
    primitive_axis: "0 1/2 1/2 1/2 0 1/2 1/2 1/2 0"
    full_force_constants: ".TRUE."

physical_unit:
  atomic_mass: "AMU"
  length: "angstrom"
  force_constants: "eV/angstrom^2"

space_group:
  type: "Fm-3m"
  number: 225
  Hall_symbol: "-F 4 2 3"

primitive_matrix:
- [  0.000000000000000,  0.500000000000000,  0.500000000000000 ]
- [  0.500000000000000,  0.000000000000000,  0.500000000000000 ]
- [  0.500000000000000,  0.500000000000000,  0.000000000000000 ]

supercell_matrix:
- [   2,   0,   0 ]
- [   0,   2,   0 ]
- [   0,   0,   2 ]

primitive_cell:
  lattice:
  - [     0.000000000000000,     2.946449895000000,     2.946449895000000 ] # a
  - [     2.946449895000000,     0.000000000000000,     2.946449895000000 ] # b
  - [     2.946449895000000,     2.946449895000000,     0.000000000000000 ] # c
  points:
  - symbol: F  # 1
    coordinates: [  0.750000000000000,  0.750000000000000,  0.750000000000000 ]
    mass: 18.998403
  - symbol: F  # 2
    coordinates: [  0.250000000000000,  0.250000000000000,  0.250000000000000 ]
    mass: 18.998403
  - symbol: Pb # 3
    coordinates: [  0.000000000000000,  0.000000000000000,  0.000000000000000 ]
    mass: 207.200000
  reciprocal_lattice: # without 2pi
  - [    -0.169695741593461,     0.169695741593461,     0.169695741593461 ] # a*
  - [     0.169695741593461,    -0.169695741593461,     0.169695741593461 ] # b*
  - [     0.169695741593461,     0.169695741593461,    -0.169695741593461 ] # c*

unit_cell:
  lattice:
  - [     5.892899790000000,     0.000000000000000,     0.000000000000000 ] # a
  - [     0.000000000000000,     5.892899790000000,     0.000000000000000 ] # b
  - [     0.000000000000000,     0.000000000000000,     5.892899790000000 ] # c
  points:
  - symbol: F  # 1
    coordinates: [  0.750000000000000,  0.250000000000000,  0.250000000000000 ]
    mass: 18.998403
    reduced_to: 1
  - symbol: F  # 2
    coordinates: [  0.750000000000000,  0.250000000000000,  0.750000000000000 ]
    mass: 18.998403
    reduced_to: 2
  - symbol: F  # 3
    coordinates: [  0.750000000000000,  0.750000000000000,  0.750000000000000 ]
    mass: 18.998403
    reduced_to: 1
  - symbol: F  # 4
    coordinates: [  0.750000000000000,  0.750000000000000,  0.250000000000000 ]
    mass: 18.998403
    reduced_to: 2
  - symbol: F  # 5
    coordinates: [  0.250000000000000,  0.250000000000000,  0.750000000000000 ]
    mass: 18.998403
    reduced_to: 1
  - symbol: F  # 6
    coordinates: [  0.250000000000000,  0.250000000000000,  0.250000000000000 ]
    mass: 18.998403
    reduced_to: 2
  - symbol: F  # 7
    coordinates: [  0.250000000000000,  0.750000000000000,  0.250000000000000 ]
    mass: 18.998403
    reduced_to: 1
  - symbol: F  # 8
    coordinates: [  0.250000000000000,  0.750000000000000,  0.750000000000000 ]
    mass: 18.998403
    reduced_to: 2
  - symbol: Pb # 9
    coordinates: [  0.000000000000000,  0.000000000000000,  0.000000000000000 ]
    mass: 207.200000
    reduced_to: 9
  - symbol: Pb # 10
    coordinates: [  0.000000000000000,  0.500000000000000,  0.500000000000000 ]
    mass: 207.200000
    reduced_to: 9
  - symbol: Pb # 11
    coordinates: [  0.500000000000000,  0.000000000000000,  0.500000000000000 ]
    mass: 207.200000
    reduced_to: 9
  - symbol: Pb # 12
    coordinates: [  0.500000000000000,  0.500000000000000,  0.000000000000000 ]
    mass: 207.200000
    reduced_to: 9

supercell:
  lattice:
  - [    11.785799580000001,     0.000000000000000,     0.000000000000000 ] # a
  - [     0.000000000000000,    11.785799580000001,     0.000000000000000 ] # b
  - [     0.000000000000000,     0.000000000000000,    11.785799580000001 ] # c
  points:
  - symbol: F  # 1
    coordinates: [  0.375000000000000,  0.125000000000000,  0.125000000000000 ]
    mass: 18.998403
    reduced_to: 1
  - symbol: F  # 2
    coordinates: [  0.875000000000000,  0.125000000000000,  0.125000000000000 ]
    mass: 18.998403
    reduced_to: 1
  - symbol: F  # 3
    coordinates: [  0.375000000000000,  0.625000000000000,  0.125000000000000 ]
    mass: 18.998403
    reduced_to: 1
  - symbol: F  # 4
    coordinates: [  0.875000000000000,  0.625000000000000,  0.125000000000000 ]
    mass: 18.998403
    reduced_to: 1
  - symbol: F  # 5
    coordinates: [  0.375000000000000,  0.125000000000000,  0.625000000000000 ]
    mass: 18.998403
    reduced_to: 1
  - symbol: F  # 6
    coordinates: [  0.875000000000000,  0.125000000000000,  0.625000000000000 ]
    mass: 18.998403
    reduced_to: 1
  - symbol: F  # 7
    coordinates: [  0.375000000000000,  0.625000000000000,  0.625000000000000 ]
    mass: 18.998403
    reduced_to: 1
  - symbol: F  # 8
    coordinates: [  0.875000000000000,  0.625000000000000,  0.625000000000000 ]
    mass: 18.998403
    reduced_to: 1
  - symbol: F  # 9
    coordinates: [  0.375000000000000,  0.125000000000000,  0.375000000000000 ]
    mass: 18.998403
    reduced_to: 9
  - symbol: F  # 10
    coordinates: [  0.875000000000000,  0.125000000000000,  0.375000000000000 ]
    mass: 18.998403
    reduced_to: 9
  - symbol: F  # 11
    coordinates: [  0.375000000000000,  0.625000000000000,  0.375000000000000 ]
    mass: 18.998403
    reduced_to: 9
  - symbol: F  # 12
    coordinates: [  0.875000000000000,  0.625000000000000,  0.375000000000000 ]
    mass: 18.998403
    reduced_to: 9
  - symbol: F  # 13
    coordinates: [  0.375000000000000,  0.125000000000000,  0.875000000000000 ]
    mass: 18.998403
    reduced_to: 9
  - symbol: F  # 14
    coordinates: [  0.875000000000000,  0.125000000000000,  0.875000000000000 ]
    mass: 18.998403
    reduced_to: 9
  - symbol: F  # 15
    coordinates: [  0.375000000000000,  0.625000000000000,  0.875000000000000 ]
    mass: 18.998403
    reduced_to: 9
  - symbol: F  # 16
    coordinates: [  0.875000000000000,  0.625000000000000,  0.875000000000000 ]
    mass: 18.998403
    reduced_to: 9
  - symbol: F  # 17
    coordinates: [  0.375000000000000,  0.375000000000000,  0.375000000000000 ]
    mass: 18.998403
    reduced_to: 1
  - symbol: F  # 18
    coordinates: [  0.875000000000000,  0.375000000000000,  0.375000000000000 ]
    mass: 18.998403
    reduced_to: 1
  - symbol: F  # 19
    coordinates: [  0.375000000000000,  0.875000000000000,  0.375000000000000 ]
    mass: 18.998403
    reduced_to: 1
  - symbol: F  # 20
    coordinates: [  0.875000000000000,  0.875000000000000,  0.375000000000000 ]
    mass: 18.998403
    reduced_to: 1
  - symbol: F  # 21
    coordinates: [  0.375000000000000,  0.375000000000000,  0.875000000000000 ]
    mass: 18.998403
    reduced_to: 1
  - symbol: F  # 22
    coordinates: [  0.875000000000000,  0.375000000000000,  0.875000000000000 ]
    mass: 18.998403
    reduced_to: 1
  - symbol: F  # 23
    coordinates: [  0.375000000000000,  0.875000000000000,  0.875000000000000 ]
    mass: 18.998403
    reduced_to: 1
  - symbol: F  # 24
    coordinates: [  0.875000000000000,  0.875000000000000,  0.875000000000000 ]
    mass: 18.998403
    reduced_to: 1
  - symbol: F  # 25
    coordinates: [  0.375000000000000,  0.375000000000000,  0.125000000000000 ]
    mass: 18.998403
    reduced_to: 9
  - symbol: F  # 26
    coordinates: [  0.875000000000000,  0.375000000000000,  0.125000000000000 ]
    mass: 18.998403
    reduced_to: 9
  - symbol: F  # 27
    coordinates: [  0.375000000000000,  0.875000000000000,  0.125000000000000 ]
    mass: 18.998403
    reduced_to: 9
  - symbol: F  # 28
    coordinates: [  0.875000000000000,  0.875000000000000,  0.125000000000000 ]
    mass: 18.998403
    reduced_to: 9
  - symbol: F  # 29
    coordinates: [  0.375000000000000,  0.375000000000000,  0.625000000000000 ]
    mass: 18.998403
    reduced_to: 9
  - symbol: F  # 30
    coordinates: [  0.875000000000000,  0.375000000000000,  0.625000000000000 ]
    mass: 18.998403
    reduced_to: 9
  - symbol: F  # 31
    coordinates: [  0.375000000000000,  0.875000000000000,  0.625000000000000 ]
    mass: 18.998403
    reduced_to: 9
  - symbol: F  # 32
    coordinates: [  0.875000000000000,  0.875000000000000,  0.625000000000000 ]
    mass: 18.998403
    reduced_to: 9
  - symbol: F  # 33
    coordinates: [  0.125000000000000,  0.125000000000000,  0.375000000000000 ]
    mass: 18.998403
    reduced_to: 1
  - symbol: F  # 34
    coordinates: [  0.625000000000000,  0.125000000000000,  0.375000000000000 ]
    mass: 18.998403
    reduced_to: 1
  - symbol: F  # 35
    coordinates: [  0.125000000000000,  0.625000000000000,  0.375000000000000 ]
    mass: 18.998403
    reduced_to: 1
  - symbol: F  # 36
    coordinates: [  0.625000000000000,  0.625000000000000,  0.375000000000000 ]
    mass: 18.998403
    reduced_to: 1
  - symbol: F  # 37
    coordinates: [  0.125000000000000,  0.125000000000000,  0.875000000000000 ]
    mass: 18.998403
    reduced_to: 1
  - symbol: F  # 38
    coordinates: [  0.625000000000000,  0.125000000000000,  0.875000000000000 ]
    mass: 18.998403
    reduced_to: 1
  - symbol: F  # 39
    coordinates: [  0.125000000000000,  0.625000000000000,  0.875000000000000 ]
    mass: 18.998403
    reduced_to: 1
  - symbol: F  # 40
    coordinates: [  0.625000000000000,  0.625000000000000,  0.875000000000000 ]
    mass: 18.998403
    reduced_to: 1
  - symbol: F  # 41
    coordinates: [  0.125000000000000,  0.125000000000000,  0.125000000000000 ]
    mass: 18.998403
    reduced_to: 9
  - symbol: F  # 42
    coordinates: [  0.625000000000000,  0.125000000000000,  0.125000000000000 ]
    mass: 18.998403
    reduced_to: 9
  - symbol: F  # 43
    coordinates: [  0.125000000000000,  0.625000000000000,  0.125000000000000 ]
    mass: 18.998403
    reduced_to: 9
  - symbol: F  # 44
    coordinates: [  0.625000000000000,  0.625000000000000,  0.125000000000000 ]
    mass: 18.998403
    reduced_to: 9
  - symbol: F  # 45
    coordinates: [  0.125000000000000,  0.125000000000000,  0.625000000000000 ]
    mass: 18.998403
    reduced_to: 9
  - symbol: F  # 46
    coordinates: [  0.625000000000000,  0.125000000000000,  0.625000000000000 ]
    mass: 18.998403
    reduced_to: 9
  - symbol: F  # 47
    coordinates: [  0.125000000000000,  0.625000000000000,  0.625000000000000 ]
    mass: 18.998403
    reduced_to: 9
  - symbol: F  # 48
    coordinates: [  0.625000000000000,  0.625000000000000,  0.625000000000000 ]
    mass: 18.998403
    reduced_to: 9
  - symbol: F  # 49
    coordinates: [  0.125000000000000,  0.375000000000000,  0.125000000000000 ]
    mass: 18.998403
    reduced_to: 1
  - symbol: F  # 50
    coordinates: [  0.625000000000000,  0.375000000000000,  0.125000000000000 ]
    mass: 18.998403
    reduced_to: 1
  - symbol: F  # 51
    coordinates: [  0.125000000000000,  0.875000000000000,  0.125000000000000 ]
    mass: 18.998403
    reduced_to: 1
  - symbol: F  # 52
    coordinates: [  0.625000000000000,  0.875000000000000,  0.125000000000000 ]
    mass: 18.998403
    reduced_to: 1
  - symbol: F  # 53
    coordinates: [  0.125000000000000,  0.375000000000000,  0.625000000000000 ]
    mass: 18.998403
    reduced_to: 1
  - symbol: F  # 54
    coordinates: [  0.625000000000000,  0.375000000000000,  0.625000000000000 ]
    mass: 18.998403
    reduced_to: 1
  - symbol: F  # 55
    coordinates: [  0.125000000000000,  0.875000000000000,  0.625000000000000 ]
    mass: 18.998403
    reduced_to: 1
  - symbol: F  # 56
    coordinates: [  0.625000000000000,  0.875000000000000,  0.625000000000000 ]
    mass: 18.998403
    reduced_to: 1
  - symbol: F  # 57
    coordinates: [  0.125000000000000,  0.375000000000000,  0.375000000000000 ]
    mass: 18.998403
    reduced_to: 9
  - symbol: F  # 58
    coordinates: [  0.625000000000000,  0.375000000000000,  0.375000000000000 ]
    mass: 18.998403
    reduced_to: 9
  - symbol: F  # 59
    coordinates: [  0.125000000000000,  0.875000000000000,  0.375000000000000 ]
    mass: 18.998403
    reduced_to: 9
  - symbol: F  # 60
    coordinates: [  0.625000000000000,  0.875000000000000,  0.375000000000000 ]
    mass: 18.998403
    reduced_to: 9
  - symbol: F  # 61
    coordinates: [  0.125000000000000,  0.375000000000000,  0.875000000000000 ]
    mass: 18.998403
    reduced_to: 9
  - symbol: F  # 62
    coordinates: [  0.625000000000000,  0.375000000000000,  0.875000000000000 ]
    mass: 18.998403
    reduced_to: 9
  - symbol: F  # 63
    coordinates: [  0.125000000000000,  0.875000000000000,  0.875000000000000 ]
    mass: 18.998403
    reduced_to: 9
  - symbol: F  # 64
    coordinates: [  0.625000000000000,  0.875000000000000,  0.875000000000000 ]
    mass: 18.998403
    reduced_to: 9
  - symbol: Pb # 65
    coordinates: [  0.000000000000000,  0.000000000000000,  0.000000000000000 ]
    mass: 207.200000
    reduced_to: 65
  - symbol: Pb # 66
    coordinates: [  0.500000000000000,  0.000000000000000,  0.000000000000000 ]
    mass: 207.200000
    reduced_to: 65
  - symbol: Pb # 67
    coordinates: [  0.000000000000000,  0.500000000000000,  0.000000000000000 ]
    mass: 207.200000
    reduced_to: 65
  - symbol: Pb # 68
    coordinates: [  0.500000000000000,  0.500000000000000,  0.000000000000000 ]
    mass: 207.200000
    reduced_to: 65
  - symbol: Pb # 69
    coordinates: [  0.000000000000000,  0.000000000000000,  0.500000000000000 ]
    mass: 207.200000
    reduced_to: 65
  - symbol: Pb # 70
    coordinates: [  0.500000000000000,  0.000000000000000,  0.500000000000000 ]
    mass: 207.200000
    reduced_to: 65
  - symbol: Pb # 71
    coordinates: [  0.000000000000000,  0.500000000000000,  0.500000000000000 ]
    mass: 207.200000
    reduced_to: 65
  - symbol: Pb # 72
    coordinates: [  0.500000000000000,  0.500000000000000,  0.500000000000000 ]
    mass: 207.200000
    reduced_to: 65
  - symbol: Pb # 73
    coordinates: [  0.000000000000000,  0.250000000000000,  0.250000000000000 ]
    mass: 207.200000
    reduced_to: 65
  - symbol: Pb # 74
    coordinates: [  0.500000000000000,  0.250000000000000,  0.250000000000000 ]
    mass: 207.200000
    reduced_to: 65
  - symbol: Pb # 75
    coordinates: [  0.000000000000000,  0.750000000000000,  0.250000000000000 ]
    mass: 207.200000
    reduced_to: 65
  - symbol: Pb # 76
    coordinates: [  0.500000000000000,  0.750000000000000,  0.250000000000000 ]
    mass: 207.200000
    reduced_to: 65
  - symbol: Pb # 77
    coordinates: [  0.000000000000000,  0.250000000000000,  0.750000000000000 ]
    mass: 207.200000
    reduced_to: 65
  - symbol: Pb # 78
    coordinates: [  0.500000000000000,  0.250000000000000,  0.750000000000000 ]
    mass: 207.200000
    reduced_to: 65
  - symbol: Pb # 79
    coordinates: [  0.000000000000000,  0.750000000000000,  0.750000000000000 ]
    mass: 207.200000
    reduced_to: 65
  - symbol: Pb # 80
    coordinates: [  0.500000000000000,  0.750000000000000,  0.750000000000000 ]
    mass: 207.200000
    reduced_to: 65
  - symbol: Pb # 81
    coordinates: [  0.250000000000000,  0.000000000000000,  0.250000000000000 ]
    mass: 207.200000
    reduced_to: 65
  - symbol: Pb # 82
    coordinates: [  0.750000000000000,  0.000000000000000,  0.250000000000000 ]
    mass: 207.200000
    reduced_to: 65
  - symbol: Pb # 83
    coordinates: [  0.250000000000000,  0.500000000000000,  0.250000000000000 ]
    mass: 207.200000
    reduced_to: 65
  - symbol: Pb # 84
    coordinates: [  0.750000000000000,  0.500000000000000,  0.250000000000000 ]
    mass: 207.200000
    reduced_to: 65
  - symbol: Pb # 85
    coordinates: [  0.250000000000000,  0.000000000000000,  0.750000000000000 ]
    mass: 207.200000
    reduced_to: 65
  - symbol: Pb # 86
    coordinates: [  0.750000000000000,  0.000000000000000,  0.750000000000000 ]
    mass: 207.200000
    reduced_to: 65
  - symbol: Pb # 87
    coordinates: [  0.250000000000000,  0.500000000000000,  0.750000000000000 ]
    mass: 207.200000
    reduced_to: 65
  - symbol: Pb # 88
    coordinates: [  0.750000000000000,  0.500000000000000,  0.750000000000000 ]
    mass: 207.200000
    reduced_to: 65
  - symbol: Pb # 89
    coordinates: [  0.250000000000000,  0.250000000000000,  0.000000000000000 ]
    mass: 207.200000
    reduced_to: 65
  - symbol: Pb # 90
    coordinates: [  0.750000000000000,  0.250000000000000,  0.000000000000000 ]
    mass: 207.200000
    reduced_to: 65
  - symbol: Pb # 91
    coordinates: [  0.250000000000000,  0.750000000000000,  0.000000000000000 ]
    mass: 207.200000
    reduced_to: 65
  - symbol: Pb # 92
    coordinates: [  0.750000000000000,  0.750000000000000,  0.000000000000000 ]
    mass: 207.200000
    reduced_to: 65
  - symbol: Pb # 93
    coordinates: [  0.250000000000000,  0.250000000000000,  0.500000000000000 ]
    mass: 207.200000
    reduced_to: 65
  - symbol: Pb # 94
    coordinates: [  0.750000000000000,  0.250000000000000,  0.500000000000000 ]
    mass: 207.200000
    reduced_to: 65
  - symbol: Pb # 95
    coordinates: [  0.250000000000000,  0.750000000000000,  0.500000000000000 ]
    mass: 207.200000
    reduced_to: 65
  - symbol: Pb # 96
    coordinates: [  0.750000000000000,  0.750000000000000,  0.500000000000000 ]
    mass: 207.200000
    reduced_to: 65
