# epsilon and Z* of atoms 1 5
   1.55810250    0.00000000    0.00000000    0.00000000    1.55810250    0.00000000    0.00000000    0.00000000    1.55810250 
  -0.00001294   -0.00553313   -0.00352499   -0.00352499   -0.00001294   -0.00553313   -0.00553313   -0.00352499   -0.00001294 
   0.00001294   -0.00554804   -0.00355801   -0.00355801    0.00001294   -0.00554804   -0.00554804   -0.00355801    0.00001294 
