natom:   64
displacements:
- atom:    1
  displacement:
    [   0.0100000000000000,  0.0000000000000000,  0.0000000000000000 ]
- atom:    1
  displacement:
    [  -0.0100000000000000,  0.0000000000000000,  0.0000000000000000 ]
- atom:   33
  displacement:
    [   0.0100000000000000,  0.0000000000000000,  0.0000000000000000 ]
- atom:   33
  displacement:
    [  -0.0100000000000000,  0.0000000000000000,  0.0000000000000000 ]
lattice:
- [    11.5726257799999992,     0.0000000000000000,     0.0000000000000000 ] # a
- [     0.0000000000000000,    11.5726257799999992,     0.0000000000000000 ] # b
- [     0.0000000000000000,     0.0000000000000000,    11.5726257799999992 ] # c
atoms:
- symbol: N  # 1
  position: [  0.0277522350000000,  0.0277522350000000,  0.0277522350000000 ]
  mass: 14.006700
- symbol: N  # 2
  position: [  0.5277522350000000,  0.0277522350000000,  0.0277522350000000 ]
  mass: 14.006700
- symbol: N  # 3
  position: [  0.0277522350000000,  0.5277522350000000,  0.0277522350000000 ]
  mass: 14.006700
- symbol: N  # 4
  position: [  0.5277522350000000,  0.5277522350000000,  0.0277522350000000 ]
  mass: 14.006700
- symbol: N  # 5
  position: [  0.0277522350000000,  0.0277522350000000,  0.5277522350000000 ]
  mass: 14.006700
- symbol: N  # 6
  position: [  0.5277522350000000,  0.0277522350000000,  0.5277522350000000 ]
  mass: 14.006700
- symbol: N  # 7
  position: [  0.0277522350000000,  0.5277522350000000,  0.5277522350000000 ]
  mass: 14.006700
- symbol: N  # 8
  position: [  0.5277522350000000,  0.5277522350000000,  0.5277522350000000 ]
  mass: 14.006700
- symbol: N  # 9
  position: [  0.2222477650000000,  0.4722477650000000,  0.2777522350000000 ]
  mass: 14.006700
- symbol: N  # 10
  position: [  0.7222477650000000,  0.4722477650000000,  0.2777522350000000 ]
  mass: 14.006700
- symbol: N  # 11
  position: [  0.2222477650000000,  0.9722477650000000,  0.2777522350000000 ]
  mass: 14.006700
- symbol: N  # 12
  position: [  0.7222477650000000,  0.9722477650000000,  0.2777522350000000 ]
  mass: 14.006700
- symbol: N  # 13
  position: [  0.2222477650000000,  0.4722477650000000,  0.7777522350000000 ]
  mass: 14.006700
- symbol: N  # 14
  position: [  0.7222477650000000,  0.4722477650000000,  0.7777522350000000 ]
  mass: 14.006700
- symbol: N  # 15
  position: [  0.2222477650000000,  0.9722477650000000,  0.7777522350000000 ]
  mass: 14.006700
- symbol: N  # 16
  position: [  0.7222477650000000,  0.9722477650000000,  0.7777522350000000 ]
  mass: 14.006700
- symbol: N  # 17
  position: [  0.2777522350000000,  0.2222477650000000,  0.4722477650000000 ]
  mass: 14.006700
- symbol: N  # 18
  position: [  0.7777522350000000,  0.2222477650000000,  0.4722477650000000 ]
  mass: 14.006700
- symbol: N  # 19
  position: [  0.2777522350000000,  0.7222477650000000,  0.4722477650000000 ]
  mass: 14.006700
- symbol: N  # 20
  position: [  0.7777522350000000,  0.7222477650000000,  0.4722477650000000 ]
  mass: 14.006700
- symbol: N  # 21
  position: [  0.2777522350000000,  0.2222477650000000,  0.9722477650000000 ]
  mass: 14.006700
- symbol: N  # 22
  position: [  0.7777522350000000,  0.2222477650000000,  0.9722477650000000 ]
  mass: 14.006700
- symbol: N  # 23
  position: [  0.2777522350000000,  0.7222477650000000,  0.9722477650000000 ]
  mass: 14.006700
- symbol: N  # 24
  position: [  0.7777522350000000,  0.7222477650000000,  0.9722477650000000 ]
  mass: 14.006700
- symbol: N  # 25
  position: [  0.4722477650000000,  0.2777522350000000,  0.2222477650000000 ]
  mass: 14.006700
- symbol: N  # 26
  position: [  0.9722477650000000,  0.2777522350000000,  0.2222477650000000 ]
  mass: 14.006700
- symbol: N  # 27
  position: [  0.4722477650000000,  0.7777522350000000,  0.2222477650000000 ]
  mass: 14.006700
- symbol: N  # 28
  position: [  0.9722477650000000,  0.7777522350000000,  0.2222477650000000 ]
  mass: 14.006700
- symbol: N  # 29
  position: [  0.4722477650000000,  0.2777522350000000,  0.7222477650000000 ]
  mass: 14.006700
- symbol: N  # 30
  position: [  0.9722477650000000,  0.2777522350000000,  0.7222477650000000 ]
  mass: 14.006700
- symbol: N  # 31
  position: [  0.4722477650000000,  0.7777522350000000,  0.7222477650000000 ]
  mass: 14.006700
- symbol: N  # 32
  position: [  0.9722477650000000,  0.7777522350000000,  0.7222477650000000 ]
  mass: 14.006700
- symbol: N  # 33
  position: [  0.4723068350000000,  0.4723068350000000,  0.4723068350000000 ]
  mass: 14.006700
- symbol: N  # 34
  position: [  0.9723068349999999,  0.4723068350000000,  0.4723068350000000 ]
  mass: 14.006700
- symbol: N  # 35
  position: [  0.4723068350000000,  0.9723068349999999,  0.4723068350000000 ]
  mass: 14.006700
- symbol: N  # 36
  position: [  0.9723068349999999,  0.9723068349999999,  0.4723068350000000 ]
  mass: 14.006700
- symbol: N  # 37
  position: [  0.4723068350000000,  0.4723068350000000,  0.9723068349999999 ]
  mass: 14.006700
- symbol: N  # 38
  position: [  0.9723068349999999,  0.4723068350000000,  0.9723068349999999 ]
  mass: 14.006700
- symbol: N  # 39
  position: [  0.4723068350000000,  0.9723068349999999,  0.9723068349999999 ]
  mass: 14.006700
- symbol: N  # 40
  position: [  0.9723068349999999,  0.9723068349999999,  0.9723068349999999 ]
  mass: 14.006700
- symbol: N  # 41
  position: [  0.2776931650000000,  0.0276931650000000,  0.2223068350000000 ]
  mass: 14.006700
- symbol: N  # 42
  position: [  0.7776931650000001,  0.0276931650000000,  0.2223068350000000 ]
  mass: 14.006700
- symbol: N  # 43
  position: [  0.2776931650000000,  0.5276931650000000,  0.2223068350000000 ]
  mass: 14.006700
- symbol: N  # 44
  position: [  0.7776931650000001,  0.5276931650000000,  0.2223068350000000 ]
  mass: 14.006700
- symbol: N  # 45
  position: [  0.2776931650000000,  0.0276931650000000,  0.7223068350000000 ]
  mass: 14.006700
- symbol: N  # 46
  position: [  0.7776931650000001,  0.0276931650000000,  0.7223068350000000 ]
  mass: 14.006700
- symbol: N  # 47
  position: [  0.2776931650000000,  0.5276931650000000,  0.7223068350000000 ]
  mass: 14.006700
- symbol: N  # 48
  position: [  0.7776931650000001,  0.5276931650000000,  0.7223068350000000 ]
  mass: 14.006700
- symbol: N  # 49
  position: [  0.2223068350000000,  0.2776931650000000,  0.0276931650000000 ]
  mass: 14.006700
- symbol: N  # 50
  position: [  0.7223068350000000,  0.2776931650000000,  0.0276931650000000 ]
  mass: 14.006700
- symbol: N  # 51
  position: [  0.2223068350000000,  0.7776931650000001,  0.0276931650000000 ]
  mass: 14.006700
- symbol: N  # 52
  position: [  0.7223068350000000,  0.7776931650000001,  0.0276931650000000 ]
  mass: 14.006700
- symbol: N  # 53
  position: [  0.2223068350000000,  0.2776931650000000,  0.5276931650000000 ]
  mass: 14.006700
- symbol: N  # 54
  position: [  0.7223068350000000,  0.2776931650000000,  0.5276931650000000 ]
  mass: 14.006700
- symbol: N  # 55
  position: [  0.2223068350000000,  0.7776931650000001,  0.5276931650000000 ]
  mass: 14.006700
- symbol: N  # 56
  position: [  0.7223068350000000,  0.7776931650000001,  0.5276931650000000 ]
  mass: 14.006700
- symbol: N  # 57
  position: [  0.0276931650000000,  0.2223068350000000,  0.2776931650000000 ]
  mass: 14.006700
- symbol: N  # 58
  position: [  0.5276931650000000,  0.2223068350000000,  0.2776931650000000 ]
  mass: 14.006700
- symbol: N  # 59
  position: [  0.0276931650000000,  0.7223068350000000,  0.2776931650000000 ]
  mass: 14.006700
- symbol: N  # 60
  position: [  0.5276931650000000,  0.7223068350000000,  0.2776931650000000 ]
  mass: 14.006700
- symbol: N  # 61
  position: [  0.0276931650000000,  0.2223068350000000,  0.7776931650000001 ]
  mass: 14.006700
- symbol: N  # 62
  position: [  0.5276931650000000,  0.2223068350000000,  0.7776931650000001 ]
  mass: 14.006700
- symbol: N  # 63
  position: [  0.0276931650000000,  0.7223068350000000,  0.7776931650000001 ]
  mass: 14.006700
- symbol: N  # 64
  position: [  0.5276931650000000,  0.7223068350000000,  0.7776931650000001 ]
  mass: 14.006700