64   
4    

1    
  0.0100000000000000   0.0000000000000000   0.0000000000000000
  -0.5069828300   -0.4983333100   -0.4983356700
   0.0014439400    0.0014782900    0.0014791600
   0.0014859500    0.0014808600    0.0014843800
   0.0014588100    0.0014532700    0.0014558400
   0.0014867300    0.0014863200    0.0014816900
   0.0014606600    0.0014582300    0.0014541100
   0.0014337200    0.0014571700    0.0014588400
   0.0014616300    0.0014580400    0.0014585900
  -0.0014619300   -0.0014599600    0.0014467800
  -0.0014694900   -0.0014607500    0.0014717700
  -0.0013788300   -0.0014786700    0.0015342000
  -0.0014881100   -0.0015343100    0.0014033600
  -0.0014616000   -0.0014605500    0.0014689300
  -0.0014686200   -0.0014605400    0.0014502300
  -0.0013788500   -0.0016176400    0.0012768100
  -0.0014890200   -0.0014864800    0.0014951000
   0.0014709400   -0.0014698800   -0.0014631000
   0.0014648800   -0.0014438000   -0.0014542100
   0.0014640300   -0.0014528100   -0.0014571400
   0.0014594300   -0.0014710800   -0.0014661300
   0.0015534900   -0.0012733600   -0.0014507000
   0.0015453700   -0.0015291000   -0.0015997400
   0.0015194400   -0.0014933500   -0.0015893900
   0.0015167100   -0.0014023600   -0.0014684800
  -0.0014596400    0.0014565800   -0.0014601200
  -0.0015921800    0.0015997600   -0.0016112900
  -0.0014594700    0.0014621500   -0.0014594800
  -0.0015952500    0.0014510600   -0.0014776500
  -0.0014624100    0.0014658300   -0.0014597800
  -0.0015538700    0.0014691100   -0.0014859600
  -0.0014629300    0.0014550400   -0.0014598400
  -0.0015522500    0.0015879400   -0.0015319700
  -0.0015170800   -0.0015135900   -0.0015133100
  -0.0014882500   -0.0015132000   -0.0015141400
  -0.0015150800   -0.0015137400   -0.0015096700
  -0.0015400500   -0.0015417300   -0.0015354100
  -0.0015138000   -0.0015090800   -0.0015119300
  -0.0015387000   -0.0015349200   -0.0015405600
  -0.0015015300   -0.0015315200   -0.0015327400
   0.5060560800    0.4983126800    0.4983139600
   0.0016716400    0.0014944900   -0.0013728300
   0.0016624900    0.0016246200   -0.0015231200
   0.0015200200    0.0015133100   -0.0015031100
   0.0015176100    0.0015170800   -0.0015281300
   0.0015484900    0.0016168600   -0.0014943600
   0.0015441500    0.0015622800   -0.0015375100
   0.0015242700    0.0015149000   -0.0015232000
   0.0015213000    0.0015170500   -0.0015063800
  -0.0014031500    0.0015249100    0.0014536500
  -0.0015709800    0.0015338600    0.0016284100
  -0.0014028100    0.0013726200    0.0016967200
  -0.0015731700    0.0014916400    0.0015522500
  -0.0015189900    0.0015295500    0.0015239000
  -0.0015188500    0.0015044000    0.0015099100
  -0.0015195500    0.0015049200    0.0015127400
  -0.0015207800    0.0015230700    0.0015176400
   0.0016266200   -0.0016940000    0.0016205000
   0.0015155800   -0.0015108900    0.0015161300
   0.0016241900   -0.0015534500    0.0015614100
   0.0015174800   -0.0015177300    0.0015174300
   0.0016295100   -0.0014536700    0.0014936300
   0.0015154000   -0.0015211900    0.0015130400
   0.0016219400   -0.0016298500    0.0016109300
   0.0015175700   -0.0015113900    0.0015150300

1    
 -0.0100000000000000   0.0000000000000000   0.0000000000000000
   0.5167534800    0.5240221300    0.5240195200
   0.0014846800    0.0014502300    0.0014487100
   0.0014426700    0.0014467900    0.0014440100
   0.0014671100    0.0014725000    0.0014695100
   0.0014443700    0.0014459600    0.0014498100
   0.0014673600    0.0014693500    0.0014737500
   0.0014909300    0.0014674500    0.0014665000
   0.0014641500    0.0014672600    0.0014677100
  -0.0014621000   -0.0014650700    0.0014781300
  -0.0014585800   -0.0014671200    0.0014563600
  -0.0015484000   -0.0014530800    0.0013996900
  -0.0014410600   -0.0013964400    0.0015290400
  -0.0014618800   -0.0014644400    0.0014552500
  -0.0014567500   -0.0014638900    0.0014734400
  -0.0015470500   -0.0013164600    0.0016511300
  -0.0014412900   -0.0014445700    0.0014360300
   0.0014566900   -0.0014562400   -0.0014638600
   0.0014571000   -0.0014777300   -0.0014677600
   0.0014667700   -0.0014778600   -0.0014725600
   0.0014655800   -0.0014556100   -0.0014595700
   0.0013765500   -0.0016485500   -0.0014769500
   0.0013757600   -0.0013964300   -0.0013267400
   0.0014052600   -0.0014320900   -0.0013376100
   0.0014101400   -0.0015271200   -0.0014597000
  -0.0014668700    0.0014699500   -0.0014662100
  -0.0013336200    0.0013263300   -0.0013115600
  -0.0014657400    0.0014632900   -0.0014655300
  -0.0013335800    0.0014759300   -0.0014505000
  -0.0014634600    0.0014610700   -0.0014660500
  -0.0013726000    0.0014563300   -0.0014394400
  -0.0014623800    0.0014691600   -0.0014655600
  -0.0013719100    0.0013361700   -0.0013913400
  -0.0015196100   -0.0015234100   -0.0015231600
  -0.0015478400   -0.0015230500   -0.0015213500
  -0.0015238300   -0.0015244500   -0.0015292900
  -0.0015024800   -0.0015009500   -0.0015070300
  -0.0015236400   -0.0015282600   -0.0015253800
  -0.0015006700   -0.0015043400   -0.0014996300
  -0.0015385600   -0.0015077100   -0.0015066700
  -0.5159467000   -0.5241121500   -0.5241107600
   0.0013723200    0.0015468700   -0.0016651400
   0.0013710600    0.0014175300   -0.0015173800
   0.0015162600    0.0015218900   -0.0015322000
   0.0015196900    0.0015214700   -0.0015102900
   0.0014939200    0.0014281500   -0.0015484100
   0.0014967900    0.0014814600   -0.0015061900
   0.0015122300    0.0015204400   -0.0015124500
   0.0015138000    0.0015182100   -0.0015297900
  -0.0016318800    0.0015158500    0.0015830300
  -0.0014638200    0.0015027500    0.0014075700
  -0.0016293600    0.0016614500    0.0013428500
  -0.0014658400    0.0015467000    0.0014861300
  -0.0015186400    0.0015090500    0.0015148900
  -0.0015155000    0.0015293400    0.0015239100
  -0.0015211600    0.0015354900    0.0015281600
  -0.0015166300    0.0015132400    0.0015191700
   0.0014092800   -0.0013428600    0.0014125600
   0.0015219700   -0.0015259800    0.0015216700
   0.0014148800   -0.0014852200    0.0014772900
   0.0015186600   -0.0015194800    0.0015191500
   0.0014091800   -0.0015813400    0.0015429800
   0.0015221100   -0.0015158000    0.0015239800
   0.0014140000   -0.0014066000    0.0014231000
   0.0015186900   -0.0015254900    0.0015210000

33   
  0.0100000000000000   0.0000000000000000   0.0000000000000000
   0.0014643200    0.0014680500    0.0014678200
   0.0014927400    0.0014678000    0.0014665100
   0.0014674100    0.0014677400    0.0014722700
   0.0014461400    0.0014444900    0.0014505700
   0.0014694600    0.0014748100    0.0014716200
   0.0014468700    0.0014506400    0.0014457600
   0.0014829500    0.0014521600    0.0014514700
   0.5158909700    0.5240561400    0.5240558300
  -0.0013143600   -0.0014887600    0.0016061500
  -0.0013151200   -0.0013620800    0.0014614500
  -0.0014632300   -0.0014691400    0.0014790900
  -0.0014658600   -0.0014672200    0.0014560700
  -0.0014360200   -0.0013702900    0.0014906800
  -0.0014390700   -0.0014227900    0.0014476500
  -0.0014590300   -0.0014675300    0.0014594200
  -0.0014619900   -0.0014667600    0.0014776500
   0.0015778600   -0.0014621100   -0.0015296800
   0.0014057300   -0.0014447600   -0.0013504700
   0.0015764400   -0.0016091700   -0.0012890000
   0.0014106200   -0.0014925600   -0.0014314300
   0.0014617700   -0.0014517900   -0.0014577400
   0.0014612300   -0.0014752000   -0.0014702700
   0.0014626700   -0.0014774700   -0.0014698600
   0.0014606900   -0.0014581100   -0.0014638500
  -0.0013541000    0.0012882200   -0.0013569800
  -0.0014669100    0.0014706700   -0.0014663700
  -0.0013586000    0.0014280800   -0.0014211700
  -0.0014644100    0.0014649200   -0.0014649700
  -0.0013546300    0.0015278600   -0.0014889600
  -0.0014661400    0.0014598600   -0.0014678400
  -0.0013588300    0.0013504000   -0.0013680300
  -0.0014636900    0.0014695400   -0.0014658000
  -0.5167999500   -0.5240725400   -0.5240700200
  -0.0015406500   -0.0015060400   -0.0015045400
  -0.0015000500   -0.0015041600   -0.0015016300
  -0.0015244800   -0.0015300800   -0.0015273500
  -0.0014998100   -0.0015006200   -0.0015048800
  -0.0015219800   -0.0015238800   -0.0015283000
  -0.0015476700   -0.0015235000   -0.0015225900
  -0.0015199300   -0.0015233700   -0.0015234300
   0.0015200700    0.0015232500   -0.0015365500
   0.0015150500    0.0015238300   -0.0015130800
   0.0016011600    0.0015057400   -0.0014529400
   0.0014959400    0.0014517400   -0.0015845900
   0.0015201800    0.0015227200   -0.0015134100
   0.0015156200    0.0015236500   -0.0015330500
   0.0016007200    0.0013700300   -0.0017042900
   0.0014940200    0.0014972000   -0.0014893600
  -0.0015107200    0.0015107500    0.0015178600
  -0.0015150500    0.0015356000    0.0015252500
  -0.0015191400    0.0015298800    0.0015251000
  -0.0015212400    0.0015104100    0.0015149000
  -0.0014341700    0.0017060600    0.0015344100
  -0.0014305800    0.0014510100    0.0013806900
  -0.0014627800    0.0014891800    0.0013949500
  -0.0014667400    0.0015828300    0.0015159100
   0.0015227800   -0.0015254400    0.0015218400
   0.0013890100   -0.0013819300    0.0013675500
   0.0015226500   -0.0015204900    0.0015222100
   0.0013880800   -0.0015309500    0.0015055500
   0.0015186600   -0.0015156600    0.0015211900
   0.0014291900   -0.0015129000    0.0014964000
   0.0015183000   -0.0015256000    0.0015213300
   0.0014276300   -0.0013923400    0.0014472900

33   
 -0.0100000000000000   0.0000000000000000   0.0000000000000000
   0.0014628300    0.0014594900    0.0014592400
   0.0014329200    0.0014575700    0.0014586500
   0.0014584600    0.0014572400    0.0014530400
   0.0014836100    0.0014855500    0.0014788500
   0.0014594400    0.0014549700    0.0014578800
   0.0014863600    0.0014820800    0.0014877100
   0.0014457500    0.0014760700    0.0014776100
  -0.5061038800   -0.4983610500   -0.4983619500
  -0.0016144200   -0.0014384800    0.0013168400
  -0.0016085900   -0.0015692500    0.0014683700
  -0.0014679400   -0.0014617800    0.0014514200
  -0.0014641500   -0.0014627600    0.0014739900
  -0.0014897800   -0.0015587400    0.0014364200
  -0.0014878600   -0.0015043900    0.0014797700
  -0.0014719400   -0.0014633200    0.0014710500
  -0.0014699200   -0.0014653800    0.0014537800
   0.0013506500   -0.0014703800   -0.0014004900
   0.0015129300   -0.0014763500   -0.0015713600
   0.0013507500   -0.0013206700   -0.0016454800
   0.0015162500   -0.0014364100   -0.0014960500
   0.0014637700   -0.0014732200   -0.0014678900
   0.0014646400   -0.0014506400   -0.0014561900
   0.0014637100   -0.0014492600   -0.0014564900
   0.0014649000   -0.0014686600   -0.0014628600
  -0.0015703600    0.0016377700   -0.0015641100
  -0.0014617500    0.0014567600   -0.0014615900
  -0.0015672300    0.0014961300   -0.0015043400
  -0.0014640800    0.0014638600   -0.0014636400
  -0.0015760700    0.0014008300   -0.0014405800
  -0.0014604600    0.0014665800   -0.0014580700
  -0.0015660700    0.0015731400   -0.0015558700
  -0.0014636000    0.0014561800   -0.0014609900
   0.5069273000    0.4982761700    0.4982789500
  -0.0015000500   -0.0015339400   -0.0015350400
  -0.0015440700   -0.0015393100   -0.0015431300
  -0.0015161400   -0.0015100900   -0.0015132700
  -0.0015416700   -0.0015410500   -0.0015366900
  -0.0015151200   -0.0015128100   -0.0015088400
  -0.0014898000   -0.0015129500   -0.0015143100
  -0.0015190200   -0.0015154800   -0.0015154300
   0.0015214200    0.0015188300   -0.0015058200
   0.0015251100    0.0015173300   -0.0015279500
   0.0014337000    0.0015326200   -0.0015881500
   0.0015428900    0.0015896600   -0.0014584900
   0.0015219300    0.0015199700   -0.0015285500
   0.0015270800    0.0015202400   -0.0015102700
   0.0014327600    0.0016708500   -0.0013309700
   0.0015425400    0.0015405500   -0.0015498300
  -0.0015256900    0.0015256500    0.0015181400
  -0.0015236800    0.0015021600    0.0015118100
  -0.0015182000    0.0015067200    0.0015116900
  -0.0015161200    0.0015262100    0.0015217800
  -0.0016102400    0.0013319200    0.0015080400
  -0.0016004000    0.0015834300    0.0016535900
  -0.0015775000    0.0015514700    0.0016485100
  -0.0015724600    0.0014562900    0.0015230300
   0.0015162300   -0.0015128600    0.0015167200
   0.0016466300   -0.0016538600    0.0016661100
   0.0015167800   -0.0015204000    0.0015171900
   0.0016495600   -0.0015060600    0.0015321300
   0.0015184500   -0.0015213100    0.0015157200
   0.0016118700   -0.0015263100    0.0015438200
   0.0015194500   -0.0015126700    0.0015163600
   0.0016076000   -0.0016444300    0.0015864500
