# epsilon and Z* of atoms 1 2 7 8
   9.13981901    0.00000000    0.00000000    0.00000000    9.13981901    0.00000000    0.00000000    0.00000000    6.18267961 
   2.33243282    0.00000000   -0.00000000    0.00000000    2.33243282    0.00000000    0.00000000    0.00000000    0.88610639 
   2.31078327    0.00000000   -0.00000000    0.00000000    2.31078327    0.00000000    0.00000000    0.00000000    0.86816461 
  -2.31479639    0.00000000    0.00000000    0.00000000   -2.31479639   -0.00000000    0.00000000    0.00000000   -0.85170053 
  -2.32841970    0.00000000    0.00000000    0.00000000   -2.32841970    0.00000000    0.00000000    0.00000000   -0.90257047 
