natom:  108
displacements:
- atom:    1
  displacement:
    [   0.0100000000000000,  0.0000000000000000,  0.0000000000000000 ]
- atom:    1
  displacement:
    [   0.0000000000000000,  0.0000000000000000,  0.0100000000000000 ]
- atom:    1
  displacement:
    [   0.0000000000000000,  0.0000000000000000, -0.0100000000000000 ]
- atom:   10
  displacement:
    [   0.0100000000000000,  0.0000000000000000,  0.0000000000000000 ]
- atom:   10
  displacement:
    [   0.0000000000000000,  0.0000000000000000,  0.0100000000000000 ]
- atom:   10
  displacement:
    [   0.0000000000000000,  0.0000000000000000, -0.0100000000000000 ]
- atom:   55
  displacement:
    [   0.0100000000000000,  0.0000000000000000,  0.0000000000000000 ]
- atom:   55
  displacement:
    [   0.0000000000000000,  0.0000000000000000,  0.0100000000000000 ]
- atom:   55
  displacement:
    [   0.0000000000000000,  0.0000000000000000, -0.0100000000000000 ]
- atom:   64
  displacement:
    [   0.0100000000000000,  0.0000000000000000,  0.0000000000000000 ]
- atom:   64
  displacement:
    [   0.0000000000000000,  0.0000000000000000,  0.0100000000000000 ]
- atom:   64
  displacement:
    [   0.0000000000000000,  0.0000000000000000, -0.0100000000000000 ]
lattice:
- [    11.2481531399999994,     0.0000000000000000,     0.0000000000000000 ] # a
- [    -5.6240765699999997,     9.7411863600000004,     0.0000000000000000 ] # b
- [     0.0000000000000000,     0.0000000000000000,    24.1372379700000010 ] # c
atoms:
- symbol: Ga # 1
  position: [  0.0000000000000000,  0.0000000000000000,  0.9495124500000000 ]
  mass: 69.723000
- symbol: Ga # 2
  position: [  0.3333333333333333,  0.0000000000000000,  0.9495124500000000 ]
  mass: 69.723000
- symbol: Ga # 3
  position: [  0.6666666666666666,  0.0000000000000000,  0.9495124500000000 ]
  mass: 69.723000
- symbol: Ga # 4
  position: [  0.0000000000000000,  0.3333333333333333,  0.9495124500000000 ]
  mass: 69.723000
- symbol: Ga # 5
  position: [  0.3333333333333333,  0.3333333333333333,  0.9495124500000000 ]
  mass: 69.723000
- symbol: Ga # 6
  position: [  0.6666666666666666,  0.3333333333333333,  0.9495124500000000 ]
  mass: 69.723000
- symbol: Ga # 7
  position: [  0.0000000000000000,  0.6666666666666666,  0.9495124500000000 ]
  mass: 69.723000
- symbol: Ga # 8
  position: [  0.3333333333333333,  0.6666666666666666,  0.9495124500000000 ]
  mass: 69.723000
- symbol: Ga # 9
  position: [  0.6666666666666666,  0.6666666666666666,  0.9495124500000000 ]
  mass: 69.723000
- symbol: Ga # 10
  position: [  0.1111111100000000,  0.2222222233333333,  0.7168016600000000 ]
  mass: 69.723000
- symbol: Ga # 11
  position: [  0.4444444433333333,  0.2222222233333333,  0.7168016600000000 ]
  mass: 69.723000
- symbol: Ga # 12
  position: [  0.7777777766666666,  0.2222222233333333,  0.7168016600000000 ]
  mass: 69.723000
- symbol: Ga # 13
  position: [  0.1111111100000000,  0.5555555566666667,  0.7168016600000000 ]
  mass: 69.723000
- symbol: Ga # 14
  position: [  0.4444444433333333,  0.5555555566666667,  0.7168016600000000 ]
  mass: 69.723000
- symbol: Ga # 15
  position: [  0.7777777766666666,  0.5555555566666667,  0.7168016600000000 ]
  mass: 69.723000
- symbol: Ga # 16
  position: [  0.1111111100000000,  0.8888888900000000,  0.7168016600000000 ]
  mass: 69.723000
- symbol: Ga # 17
  position: [  0.4444444433333333,  0.8888888900000000,  0.7168016600000000 ]
  mass: 69.723000
- symbol: Ga # 18
  position: [  0.7777777766666666,  0.8888888900000000,  0.7168016600000000 ]
  mass: 69.723000
- symbol: Ga # 19
  position: [  0.2222222233333333,  0.1111111100000000,  0.2828457800000000 ]
  mass: 69.723000
- symbol: Ga # 20
  position: [  0.5555555566666667,  0.1111111100000000,  0.2828457800000000 ]
  mass: 69.723000
- symbol: Ga # 21
  position: [  0.8888888900000000,  0.1111111100000000,  0.2828457800000000 ]
  mass: 69.723000
- symbol: Ga # 22
  position: [  0.2222222233333333,  0.4444444433333333,  0.2828457800000000 ]
  mass: 69.723000
- symbol: Ga # 23
  position: [  0.5555555566666667,  0.4444444433333333,  0.2828457800000000 ]
  mass: 69.723000
- symbol: Ga # 24
  position: [  0.8888888900000000,  0.4444444433333333,  0.2828457800000000 ]
  mass: 69.723000
- symbol: Ga # 25
  position: [  0.2222222233333333,  0.7777777766666666,  0.2828457800000000 ]
  mass: 69.723000
- symbol: Ga # 26
  position: [  0.5555555566666667,  0.7777777766666666,  0.2828457800000000 ]
  mass: 69.723000
- symbol: Ga # 27
  position: [  0.8888888900000000,  0.7777777766666666,  0.2828457800000000 ]
  mass: 69.723000
- symbol: Ga # 28
  position: [  0.0000000000000000,  0.0000000000000000,  0.0501350000000000 ]
  mass: 69.723000
- symbol: Ga # 29
  position: [  0.3333333333333333,  0.0000000000000000,  0.0501350000000000 ]
  mass: 69.723000
- symbol: Ga # 30
  position: [  0.6666666666666666,  0.0000000000000000,  0.0501350000000000 ]
  mass: 69.723000
- symbol: Ga # 31
  position: [  0.0000000000000000,  0.3333333333333333,  0.0501350000000000 ]
  mass: 69.723000
- symbol: Ga # 32
  position: [  0.3333333333333333,  0.3333333333333333,  0.0501350000000000 ]
  mass: 69.723000
- symbol: Ga # 33
  position: [  0.6666666666666666,  0.3333333333333333,  0.0501350000000000 ]
  mass: 69.723000
- symbol: Ga # 34
  position: [  0.0000000000000000,  0.6666666666666666,  0.0501350000000000 ]
  mass: 69.723000
- symbol: Ga # 35
  position: [  0.3333333333333333,  0.6666666666666666,  0.0501350000000000 ]
  mass: 69.723000
- symbol: Ga # 36
  position: [  0.6666666666666666,  0.6666666666666666,  0.0501350000000000 ]
  mass: 69.723000
- symbol: Ga # 37
  position: [  0.1111111100000000,  0.2222222233333333,  0.6161791100000000 ]
  mass: 69.723000
- symbol: Ga # 38
  position: [  0.4444444433333333,  0.2222222233333333,  0.6161791100000000 ]
  mass: 69.723000
- symbol: Ga # 39
  position: [  0.7777777766666666,  0.2222222233333333,  0.6161791100000000 ]
  mass: 69.723000
- symbol: Ga # 40
  position: [  0.1111111100000000,  0.5555555566666667,  0.6161791100000000 ]
  mass: 69.723000
- symbol: Ga # 41
  position: [  0.4444444433333333,  0.5555555566666667,  0.6161791100000000 ]
  mass: 69.723000
- symbol: Ga # 42
  position: [  0.7777777766666666,  0.5555555566666667,  0.6161791100000000 ]
  mass: 69.723000
- symbol: Ga # 43
  position: [  0.1111111100000000,  0.8888888900000000,  0.6161791100000000 ]
  mass: 69.723000
- symbol: Ga # 44
  position: [  0.4444444433333333,  0.8888888900000000,  0.6161791100000000 ]
  mass: 69.723000
- symbol: Ga # 45
  position: [  0.7777777766666666,  0.8888888900000000,  0.6161791100000000 ]
  mass: 69.723000
- symbol: Ga # 46
  position: [  0.2222222233333333,  0.1111111100000000,  0.3834683300000000 ]
  mass: 69.723000
- symbol: Ga # 47
  position: [  0.5555555566666667,  0.1111111100000000,  0.3834683300000000 ]
  mass: 69.723000
- symbol: Ga # 48
  position: [  0.8888888900000000,  0.1111111100000000,  0.3834683300000000 ]
  mass: 69.723000
- symbol: Ga # 49
  position: [  0.2222222233333333,  0.4444444433333333,  0.3834683300000000 ]
  mass: 69.723000
- symbol: Ga # 50
  position: [  0.5555555566666667,  0.4444444433333333,  0.3834683300000000 ]
  mass: 69.723000
- symbol: Ga # 51
  position: [  0.8888888900000000,  0.4444444433333333,  0.3834683300000000 ]
  mass: 69.723000
- symbol: Ga # 52
  position: [  0.2222222233333333,  0.7777777766666666,  0.3834683300000000 ]
  mass: 69.723000
- symbol: Ga # 53
  position: [  0.5555555566666667,  0.7777777766666666,  0.3834683300000000 ]
  mass: 69.723000
- symbol: Ga # 54
  position: [  0.8888888900000000,  0.7777777766666666,  0.3834683300000000 ]
  mass: 69.723000
- symbol: Se # 55
  position: [  0.1111111100000000,  0.2222222233333333,  0.9010080700000000 ]
  mass: 78.960000
- symbol: Se # 56
  position: [  0.4444444433333333,  0.2222222233333333,  0.9010080700000000 ]
  mass: 78.960000
- symbol: Se # 57
  position: [  0.7777777766666666,  0.2222222233333333,  0.9010080700000000 ]
  mass: 78.960000
- symbol: Se # 58
  position: [  0.1111111100000000,  0.5555555566666667,  0.9010080700000000 ]
  mass: 78.960000
- symbol: Se # 59
  position: [  0.4444444433333333,  0.5555555566666667,  0.9010080700000000 ]
  mass: 78.960000
- symbol: Se # 60
  position: [  0.7777777766666666,  0.5555555566666667,  0.9010080700000000 ]
  mass: 78.960000
- symbol: Se # 61
  position: [  0.1111111100000000,  0.8888888900000000,  0.9010080700000000 ]
  mass: 78.960000
- symbol: Se # 62
  position: [  0.4444444433333333,  0.8888888900000000,  0.9010080700000000 ]
  mass: 78.960000
- symbol: Se # 63
  position: [  0.7777777766666666,  0.8888888900000000,  0.9010080700000000 ]
  mass: 78.960000
- symbol: Se # 64
  position: [  0.2222222233333333,  0.1111111100000000,  0.7653444900000000 ]
  mass: 78.960000
- symbol: Se # 65
  position: [  0.5555555566666667,  0.1111111100000000,  0.7653444900000000 ]
  mass: 78.960000
- symbol: Se # 66
  position: [  0.8888888900000000,  0.1111111100000000,  0.7653444900000000 ]
  mass: 78.960000
- symbol: Se # 67
  position: [  0.2222222233333333,  0.4444444433333333,  0.7653444900000000 ]
  mass: 78.960000
- symbol: Se # 68
  position: [  0.5555555566666667,  0.4444444433333333,  0.7653444900000000 ]
  mass: 78.960000
- symbol: Se # 69
  position: [  0.8888888900000000,  0.4444444433333333,  0.7653444900000000 ]
  mass: 78.960000
- symbol: Se # 70
  position: [  0.2222222233333333,  0.7777777766666666,  0.7653444900000000 ]
  mass: 78.960000
- symbol: Se # 71
  position: [  0.5555555566666667,  0.7777777766666666,  0.7653444900000000 ]
  mass: 78.960000
- symbol: Se # 72
  position: [  0.8888888900000000,  0.7777777766666666,  0.7653444900000000 ]
  mass: 78.960000
- symbol: Se # 73
  position: [  0.0000000000000000,  0.0000000000000000,  0.2343414000000000 ]
  mass: 78.960000
- symbol: Se # 74
  position: [  0.3333333333333333,  0.0000000000000000,  0.2343414000000000 ]
  mass: 78.960000
- symbol: Se # 75
  position: [  0.6666666666666666,  0.0000000000000000,  0.2343414000000000 ]
  mass: 78.960000
- symbol: Se # 76
  position: [  0.0000000000000000,  0.3333333333333333,  0.2343414000000000 ]
  mass: 78.960000
- symbol: Se # 77
  position: [  0.3333333333333333,  0.3333333333333333,  0.2343414000000000 ]
  mass: 78.960000
- symbol: Se # 78
  position: [  0.6666666666666666,  0.3333333333333333,  0.2343414000000000 ]
  mass: 78.960000
- symbol: Se # 79
  position: [  0.0000000000000000,  0.6666666666666666,  0.2343414000000000 ]
  mass: 78.960000
- symbol: Se # 80
  position: [  0.3333333333333333,  0.6666666666666666,  0.2343414000000000 ]
  mass: 78.960000
- symbol: Se # 81
  position: [  0.6666666666666666,  0.6666666666666666,  0.2343414000000000 ]
  mass: 78.960000
- symbol: Se # 82
  position: [  0.1111111100000000,  0.2222222233333333,  0.0986778200000000 ]
  mass: 78.960000
- symbol: Se # 83
  position: [  0.4444444433333333,  0.2222222233333333,  0.0986778200000000 ]
  mass: 78.960000
- symbol: Se # 84
  position: [  0.7777777766666666,  0.2222222233333333,  0.0986778200000000 ]
  mass: 78.960000
- symbol: Se # 85
  position: [  0.1111111100000000,  0.5555555566666667,  0.0986778200000000 ]
  mass: 78.960000
- symbol: Se # 86
  position: [  0.4444444433333333,  0.5555555566666667,  0.0986778200000000 ]
  mass: 78.960000
- symbol: Se # 87
  position: [  0.7777777766666666,  0.5555555566666667,  0.0986778200000000 ]
  mass: 78.960000
- symbol: Se # 88
  position: [  0.1111111100000000,  0.8888888900000000,  0.0986778200000000 ]
  mass: 78.960000
- symbol: Se # 89
  position: [  0.4444444433333333,  0.8888888900000000,  0.0986778200000000 ]
  mass: 78.960000
- symbol: Se # 90
  position: [  0.7777777766666666,  0.8888888900000000,  0.0986778200000000 ]
  mass: 78.960000
- symbol: Se # 91
  position: [  0.2222222233333333,  0.1111111100000000,  0.5676747400000000 ]
  mass: 78.960000
- symbol: Se # 92
  position: [  0.5555555566666667,  0.1111111100000000,  0.5676747400000000 ]
  mass: 78.960000
- symbol: Se # 93
  position: [  0.8888888900000000,  0.1111111100000000,  0.5676747400000000 ]
  mass: 78.960000
- symbol: Se # 94
  position: [  0.2222222233333333,  0.4444444433333333,  0.5676747400000000 ]
  mass: 78.960000
- symbol: Se # 95
  position: [  0.5555555566666667,  0.4444444433333333,  0.5676747400000000 ]
  mass: 78.960000
- symbol: Se # 96
  position: [  0.8888888900000000,  0.4444444433333333,  0.5676747400000000 ]
  mass: 78.960000
- symbol: Se # 97
  position: [  0.2222222233333333,  0.7777777766666666,  0.5676747400000000 ]
  mass: 78.960000
- symbol: Se # 98
  position: [  0.5555555566666667,  0.7777777766666666,  0.5676747400000000 ]
  mass: 78.960000
- symbol: Se # 99
  position: [  0.8888888900000000,  0.7777777766666666,  0.5676747400000000 ]
  mass: 78.960000
- symbol: Se # 100
  position: [  0.0000000000000000,  0.0000000000000000,  0.4320111500000000 ]
  mass: 78.960000
- symbol: Se # 101
  position: [  0.3333333333333333,  0.0000000000000000,  0.4320111500000000 ]
  mass: 78.960000
- symbol: Se # 102
  position: [  0.6666666666666666,  0.0000000000000000,  0.4320111500000000 ]
  mass: 78.960000
- symbol: Se # 103
  position: [  0.0000000000000000,  0.3333333333333333,  0.4320111500000000 ]
  mass: 78.960000
- symbol: Se # 104
  position: [  0.3333333333333333,  0.3333333333333333,  0.4320111500000000 ]
  mass: 78.960000
- symbol: Se # 105
  position: [  0.6666666666666666,  0.3333333333333333,  0.4320111500000000 ]
  mass: 78.960000
- symbol: Se # 106
  position: [  0.0000000000000000,  0.6666666666666666,  0.4320111500000000 ]
  mass: 78.960000
- symbol: Se # 107
  position: [  0.3333333333333333,  0.6666666666666666,  0.4320111500000000 ]
  mass: 78.960000
- symbol: Se # 108
  position: [  0.6666666666666666,  0.6666666666666666,  0.4320111500000000 ]
  mass: 78.960000