phonopy:
  version: "2.21.2"
  frequency_unit_conversion_factor: 15.633302
  symmetry_tolerance: 1.00000e-05
  configuration:
    force_constants: "WRITE"
    dim: "3 0 0 0 3 0 0 0 1"
    primitive_axis: "2/3 -1/3 -1/3 1/3 1/3 -2/3 1/3 1/3 1/3"
    full_force_constants: ".TRUE."

physical_unit:
  atomic_mass: "AMU"
  length: "angstrom"
  force_constants: "eV/angstrom^2"

space_group:
  type: "R3m"
  number: 160
  Hall_symbol: "R 3 -2\""

primitive_matrix:
- [  0.666666666666667, -0.333333333333333, -0.333333333333333 ]
- [  0.333333333333333,  0.333333333333333, -0.666666666666667 ]
- [  0.333333333333333,  0.333333333333333,  0.333333333333333 ]

supercell_matrix:
- [   3,   0,   0 ]
- [   0,   3,   0 ]
- [   0,   0,   1 ]

primitive_cell:
  lattice:
  - [     1.874692190000000,     1.082354040000000,     8.045745990000000 ] # a
  - [    -1.874692190000000,     1.082354040000000,     8.045745990000000 ] # b
  - [     0.000000000000000,    -2.164708080000000,     8.045745990000000 ] # c
  points:
  - symbol: Ga # 1
    coordinates: [  0.949512450000000,  0.949512450000000,  0.949512450000000 ]
    mass: 69.723000
  - symbol: Ga # 2
    coordinates: [  0.050134990000000,  0.050135000000000,  0.050134990000000 ]
    mass: 69.723000
  - symbol: Se # 3
    coordinates: [  0.234341400000000,  0.234341410000000,  0.234341400000000 ]
    mass: 78.960000
  - symbol: Se # 4
    coordinates: [  0.432011160000000,  0.432011150000000,  0.432011160000000 ]
    mass: 78.960000
  reciprocal_lattice: # without 2pi
  - [     0.266710451276804,     0.153985350917771,     0.041429760987686 ] # a*
  - [    -0.266710451276804,     0.153985350917771,     0.041429760987686 ] # b*
  - [    -0.000000000000000,    -0.307970701835541,     0.041429760987686 ] # c*

unit_cell:
  lattice:
  - [     3.749384380000000,     0.000000000000000,     0.000000000000000 ] # a
  - [    -1.874692190000000,     3.247062120000000,     0.000000000000000 ] # b
  - [     0.000000000000000,     0.000000000000000,    24.137237970000001 ] # c
  points:
  - symbol: Ga # 1
    coordinates: [  0.000000000000000,  0.000000000000000,  0.949512450000000 ]
    mass: 69.723000
    reduced_to: 1
  - symbol: Ga # 2
    coordinates: [  0.333333330000000,  0.666666670000000,  0.716801660000000 ]
    mass: 69.723000
    reduced_to: 2
  - symbol: Ga # 3
    coordinates: [  0.666666670000000,  0.333333330000000,  0.282845780000000 ]
    mass: 69.723000
    reduced_to: 1
  - symbol: Ga # 4
    coordinates: [  0.000000000000000,  0.000000000000000,  0.050135000000000 ]
    mass: 69.723000
    reduced_to: 2
  - symbol: Ga # 5
    coordinates: [  0.333333330000000,  0.666666670000000,  0.616179110000000 ]
    mass: 69.723000
    reduced_to: 1
  - symbol: Ga # 6
    coordinates: [  0.666666670000000,  0.333333330000000,  0.383468330000000 ]
    mass: 69.723000
    reduced_to: 2
  - symbol: Se # 7
    coordinates: [  0.333333330000000,  0.666666670000000,  0.901008070000000 ]
    mass: 78.960000
    reduced_to: 7
  - symbol: Se # 8
    coordinates: [  0.666666670000000,  0.333333330000000,  0.765344490000000 ]
    mass: 78.960000
    reduced_to: 8
  - symbol: Se # 9
    coordinates: [  0.000000000000000,  0.000000000000000,  0.234341400000000 ]
    mass: 78.960000
    reduced_to: 7
  - symbol: Se # 10
    coordinates: [  0.333333330000000,  0.666666670000000,  0.098677820000000 ]
    mass: 78.960000
    reduced_to: 8
  - symbol: Se # 11
    coordinates: [  0.666666670000000,  0.333333330000000,  0.567674740000000 ]
    mass: 78.960000
    reduced_to: 7
  - symbol: Se # 12
    coordinates: [  0.000000000000000,  0.000000000000000,  0.432011150000000 ]
    mass: 78.960000
    reduced_to: 8

supercell:
  lattice:
  - [    11.248153139999999,     0.000000000000000,     0.000000000000000 ] # a
  - [    -5.624076570000000,     9.741186360000000,     0.000000000000000 ] # b
  - [     0.000000000000000,     0.000000000000000,    24.137237970000001 ] # c
  points:
  - symbol: Ga # 1
    coordinates: [  0.000000000000000,  0.000000000000000,  0.949512450000000 ]
    mass: 69.723000
    reduced_to: 1
  - symbol: Ga # 2
    coordinates: [  0.333333333333333,  0.000000000000000,  0.949512450000000 ]
    mass: 69.723000
    reduced_to: 1
  - symbol: Ga # 3
    coordinates: [  0.666666666666667,  0.000000000000000,  0.949512450000000 ]
    mass: 69.723000
    reduced_to: 1
  - symbol: Ga # 4
    coordinates: [  0.000000000000000,  0.333333333333333,  0.949512450000000 ]
    mass: 69.723000
    reduced_to: 1
  - symbol: Ga # 5
    coordinates: [  0.333333333333333,  0.333333333333333,  0.949512450000000 ]
    mass: 69.723000
    reduced_to: 1
  - symbol: Ga # 6
    coordinates: [  0.666666666666667,  0.333333333333333,  0.949512450000000 ]
    mass: 69.723000
    reduced_to: 1
  - symbol: Ga # 7
    coordinates: [  0.000000000000000,  0.666666666666667,  0.949512450000000 ]
    mass: 69.723000
    reduced_to: 1
  - symbol: Ga # 8
    coordinates: [  0.333333333333333,  0.666666666666667,  0.949512450000000 ]
    mass: 69.723000
    reduced_to: 1
  - symbol: Ga # 9
    coordinates: [  0.666666666666667,  0.666666666666667,  0.949512450000000 ]
    mass: 69.723000
    reduced_to: 1
  - symbol: Ga # 10
    coordinates: [  0.111111110000000,  0.222222223333333,  0.716801660000000 ]
    mass: 69.723000
    reduced_to: 10
  - symbol: Ga # 11
    coordinates: [  0.444444443333333,  0.222222223333333,  0.716801660000000 ]
    mass: 69.723000
    reduced_to: 10
  - symbol: Ga # 12
    coordinates: [  0.777777776666667,  0.222222223333333,  0.716801660000000 ]
    mass: 69.723000
    reduced_to: 10
  - symbol: Ga # 13
    coordinates: [  0.111111110000000,  0.555555556666667,  0.716801660000000 ]
    mass: 69.723000
    reduced_to: 10
  - symbol: Ga # 14
    coordinates: [  0.444444443333333,  0.555555556666667,  0.716801660000000 ]
    mass: 69.723000
    reduced_to: 10
  - symbol: Ga # 15
    coordinates: [  0.777777776666667,  0.555555556666667,  0.716801660000000 ]
    mass: 69.723000
    reduced_to: 10
  - symbol: Ga # 16
    coordinates: [  0.111111110000000,  0.888888890000000,  0.716801660000000 ]
    mass: 69.723000
    reduced_to: 10
  - symbol: Ga # 17
    coordinates: [  0.444444443333333,  0.888888890000000,  0.716801660000000 ]
    mass: 69.723000
    reduced_to: 10
  - symbol: Ga # 18
    coordinates: [  0.777777776666667,  0.888888890000000,  0.716801660000000 ]
    mass: 69.723000
    reduced_to: 10
  - symbol: Ga # 19
    coordinates: [  0.222222223333333,  0.111111110000000,  0.282845780000000 ]
    mass: 69.723000
    reduced_to: 1
  - symbol: Ga # 20
    coordinates: [  0.555555556666667,  0.111111110000000,  0.282845780000000 ]
    mass: 69.723000
    reduced_to: 1
  - symbol: Ga # 21
    coordinates: [  0.888888890000000,  0.111111110000000,  0.282845780000000 ]
    mass: 69.723000
    reduced_to: 1
  - symbol: Ga # 22
    coordinates: [  0.222222223333333,  0.444444443333333,  0.282845780000000 ]
    mass: 69.723000
    reduced_to: 1
  - symbol: Ga # 23
    coordinates: [  0.555555556666667,  0.444444443333333,  0.282845780000000 ]
    mass: 69.723000
    reduced_to: 1
  - symbol: Ga # 24
    coordinates: [  0.888888890000000,  0.444444443333333,  0.282845780000000 ]
    mass: 69.723000
    reduced_to: 1
  - symbol: Ga # 25
    coordinates: [  0.222222223333333,  0.777777776666667,  0.282845780000000 ]
    mass: 69.723000
    reduced_to: 1
  - symbol: Ga # 26
    coordinates: [  0.555555556666667,  0.777777776666667,  0.282845780000000 ]
    mass: 69.723000
    reduced_to: 1
  - symbol: Ga # 27
    coordinates: [  0.888888890000000,  0.777777776666667,  0.282845780000000 ]
    mass: 69.723000
    reduced_to: 1
  - symbol: Ga # 28
    coordinates: [  0.000000000000000,  0.000000000000000,  0.050135000000000 ]
    mass: 69.723000
    reduced_to: 10
  - symbol: Ga # 29
    coordinates: [  0.333333333333333,  0.000000000000000,  0.050135000000000 ]
    mass: 69.723000
    reduced_to: 10
  - symbol: Ga # 30
    coordinates: [  0.666666666666667,  0.000000000000000,  0.050135000000000 ]
    mass: 69.723000
    reduced_to: 10
  - symbol: Ga # 31
    coordinates: [  0.000000000000000,  0.333333333333333,  0.050135000000000 ]
    mass: 69.723000
    reduced_to: 10
  - symbol: Ga # 32
    coordinates: [  0.333333333333333,  0.333333333333333,  0.050135000000000 ]
    mass: 69.723000
    reduced_to: 10
  - symbol: Ga # 33
    coordinates: [  0.666666666666667,  0.333333333333333,  0.050135000000000 ]
    mass: 69.723000
    reduced_to: 10
  - symbol: Ga # 34
    coordinates: [  0.000000000000000,  0.666666666666667,  0.050135000000000 ]
    mass: 69.723000
    reduced_to: 10
  - symbol: Ga # 35
    coordinates: [  0.333333333333333,  0.666666666666667,  0.050135000000000 ]
    mass: 69.723000
    reduced_to: 10
  - symbol: Ga # 36
    coordinates: [  0.666666666666667,  0.666666666666667,  0.050135000000000 ]
    mass: 69.723000
    reduced_to: 10
  - symbol: Ga # 37
    coordinates: [  0.111111110000000,  0.222222223333333,  0.616179110000000 ]
    mass: 69.723000
    reduced_to: 1
  - symbol: Ga # 38
    coordinates: [  0.444444443333333,  0.222222223333333,  0.616179110000000 ]
    mass: 69.723000
    reduced_to: 1
  - symbol: Ga # 39
    coordinates: [  0.777777776666667,  0.222222223333333,  0.616179110000000 ]
    mass: 69.723000
    reduced_to: 1
  - symbol: Ga # 40
    coordinates: [  0.111111110000000,  0.555555556666667,  0.616179110000000 ]
    mass: 69.723000
    reduced_to: 1
  - symbol: Ga # 41
    coordinates: [  0.444444443333333,  0.555555556666667,  0.616179110000000 ]
    mass: 69.723000
    reduced_to: 1
  - symbol: Ga # 42
    coordinates: [  0.777777776666667,  0.555555556666667,  0.616179110000000 ]
    mass: 69.723000
    reduced_to: 1
  - symbol: Ga # 43
    coordinates: [  0.111111110000000,  0.888888890000000,  0.616179110000000 ]
    mass: 69.723000
    reduced_to: 1
  - symbol: Ga # 44
    coordinates: [  0.444444443333333,  0.888888890000000,  0.616179110000000 ]
    mass: 69.723000
    reduced_to: 1
  - symbol: Ga # 45
    coordinates: [  0.777777776666667,  0.888888890000000,  0.616179110000000 ]
    mass: 69.723000
    reduced_to: 1
  - symbol: Ga # 46
    coordinates: [  0.222222223333333,  0.111111110000000,  0.383468330000000 ]
    mass: 69.723000
    reduced_to: 10
  - symbol: Ga # 47
    coordinates: [  0.555555556666667,  0.111111110000000,  0.383468330000000 ]
    mass: 69.723000
    reduced_to: 10
  - symbol: Ga # 48
    coordinates: [  0.888888890000000,  0.111111110000000,  0.383468330000000 ]
    mass: 69.723000
    reduced_to: 10
  - symbol: Ga # 49
    coordinates: [  0.222222223333333,  0.444444443333333,  0.383468330000000 ]
    mass: 69.723000
    reduced_to: 10
  - symbol: Ga # 50
    coordinates: [  0.555555556666667,  0.444444443333333,  0.383468330000000 ]
    mass: 69.723000
    reduced_to: 10
  - symbol: Ga # 51
    coordinates: [  0.888888890000000,  0.444444443333333,  0.383468330000000 ]
    mass: 69.723000
    reduced_to: 10
  - symbol: Ga # 52
    coordinates: [  0.222222223333333,  0.777777776666667,  0.383468330000000 ]
    mass: 69.723000
    reduced_to: 10
  - symbol: Ga # 53
    coordinates: [  0.555555556666667,  0.777777776666667,  0.383468330000000 ]
    mass: 69.723000
    reduced_to: 10
  - symbol: Ga # 54
    coordinates: [  0.888888890000000,  0.777777776666667,  0.383468330000000 ]
    mass: 69.723000
    reduced_to: 10
  - symbol: Se # 55
    coordinates: [  0.111111110000000,  0.222222223333333,  0.901008070000000 ]
    mass: 78.960000
    reduced_to: 55
  - symbol: Se # 56
    coordinates: [  0.444444443333333,  0.222222223333333,  0.901008070000000 ]
    mass: 78.960000
    reduced_to: 55
  - symbol: Se # 57
    coordinates: [  0.777777776666667,  0.222222223333333,  0.901008070000000 ]
    mass: 78.960000
    reduced_to: 55
  - symbol: Se # 58
    coordinates: [  0.111111110000000,  0.555555556666667,  0.901008070000000 ]
    mass: 78.960000
    reduced_to: 55
  - symbol: Se # 59
    coordinates: [  0.444444443333333,  0.555555556666667,  0.901008070000000 ]
    mass: 78.960000
    reduced_to: 55
  - symbol: Se # 60
    coordinates: [  0.777777776666667,  0.555555556666667,  0.901008070000000 ]
    mass: 78.960000
    reduced_to: 55
  - symbol: Se # 61
    coordinates: [  0.111111110000000,  0.888888890000000,  0.901008070000000 ]
    mass: 78.960000
    reduced_to: 55
  - symbol: Se # 62
    coordinates: [  0.444444443333333,  0.888888890000000,  0.901008070000000 ]
    mass: 78.960000
    reduced_to: 55
  - symbol: Se # 63
    coordinates: [  0.777777776666667,  0.888888890000000,  0.901008070000000 ]
    mass: 78.960000
    reduced_to: 55
  - symbol: Se # 64
    coordinates: [  0.222222223333333,  0.111111110000000,  0.765344490000000 ]
    mass: 78.960000
    reduced_to: 64
  - symbol: Se # 65
    coordinates: [  0.555555556666667,  0.111111110000000,  0.765344490000000 ]
    mass: 78.960000
    reduced_to: 64
  - symbol: Se # 66
    coordinates: [  0.888888890000000,  0.111111110000000,  0.765344490000000 ]
    mass: 78.960000
    reduced_to: 64
  - symbol: Se # 67
    coordinates: [  0.222222223333333,  0.444444443333333,  0.765344490000000 ]
    mass: 78.960000
    reduced_to: 64
  - symbol: Se # 68
    coordinates: [  0.555555556666667,  0.444444443333333,  0.765344490000000 ]
    mass: 78.960000
    reduced_to: 64
  - symbol: Se # 69
    coordinates: [  0.888888890000000,  0.444444443333333,  0.765344490000000 ]
    mass: 78.960000
    reduced_to: 64
  - symbol: Se # 70
    coordinates: [  0.222222223333333,  0.777777776666667,  0.765344490000000 ]
    mass: 78.960000
    reduced_to: 64
  - symbol: Se # 71
    coordinates: [  0.555555556666667,  0.777777776666667,  0.765344490000000 ]
    mass: 78.960000
    reduced_to: 64
  - symbol: Se # 72
    coordinates: [  0.888888890000000,  0.777777776666667,  0.765344490000000 ]
    mass: 78.960000
    reduced_to: 64
  - symbol: Se # 73
    coordinates: [  0.000000000000000,  0.000000000000000,  0.234341400000000 ]
    mass: 78.960000
    reduced_to: 55
  - symbol: Se # 74
    coordinates: [  0.333333333333333,  0.000000000000000,  0.234341400000000 ]
    mass: 78.960000
    reduced_to: 55
  - symbol: Se # 75
    coordinates: [  0.666666666666667,  0.000000000000000,  0.234341400000000 ]
    mass: 78.960000
    reduced_to: 55
  - symbol: Se # 76
    coordinates: [  0.000000000000000,  0.333333333333333,  0.234341400000000 ]
    mass: 78.960000
    reduced_to: 55
  - symbol: Se # 77
    coordinates: [  0.333333333333333,  0.333333333333333,  0.234341400000000 ]
    mass: 78.960000
    reduced_to: 55
  - symbol: Se # 78
    coordinates: [  0.666666666666667,  0.333333333333333,  0.234341400000000 ]
    mass: 78.960000
    reduced_to: 55
  - symbol: Se # 79
    coordinates: [  0.000000000000000,  0.666666666666667,  0.234341400000000 ]
    mass: 78.960000
    reduced_to: 55
  - symbol: Se # 80
    coordinates: [  0.333333333333333,  0.666666666666667,  0.234341400000000 ]
    mass: 78.960000
    reduced_to: 55
  - symbol: Se # 81
    coordinates: [  0.666666666666667,  0.666666666666667,  0.234341400000000 ]
    mass: 78.960000
    reduced_to: 55
  - symbol: Se # 82
    coordinates: [  0.111111110000000,  0.222222223333333,  0.098677820000000 ]
    mass: 78.960000
    reduced_to: 64
  - symbol: Se # 83
    coordinates: [  0.444444443333333,  0.222222223333333,  0.098677820000000 ]
    mass: 78.960000
    reduced_to: 64
  - symbol: Se # 84
    coordinates: [  0.777777776666667,  0.222222223333333,  0.098677820000000 ]
    mass: 78.960000
    reduced_to: 64
  - symbol: Se # 85
    coordinates: [  0.111111110000000,  0.555555556666667,  0.098677820000000 ]
    mass: 78.960000
    reduced_to: 64
  - symbol: Se # 86
    coordinates: [  0.444444443333333,  0.555555556666667,  0.098677820000000 ]
    mass: 78.960000
    reduced_to: 64
  - symbol: Se # 87
    coordinates: [  0.777777776666667,  0.555555556666667,  0.098677820000000 ]
    mass: 78.960000
    reduced_to: 64
  - symbol: Se # 88
    coordinates: [  0.111111110000000,  0.888888890000000,  0.098677820000000 ]
    mass: 78.960000
    reduced_to: 64
  - symbol: Se # 89
    coordinates: [  0.444444443333333,  0.888888890000000,  0.098677820000000 ]
    mass: 78.960000
    reduced_to: 64
  - symbol: Se # 90
    coordinates: [  0.777777776666667,  0.888888890000000,  0.098677820000000 ]
    mass: 78.960000
    reduced_to: 64
  - symbol: Se # 91
    coordinates: [  0.222222223333333,  0.111111110000000,  0.567674740000000 ]
    mass: 78.960000
    reduced_to: 55
  - symbol: Se # 92
    coordinates: [  0.555555556666667,  0.111111110000000,  0.567674740000000 ]
    mass: 78.960000
    reduced_to: 55
  - symbol: Se # 93
    coordinates: [  0.888888890000000,  0.111111110000000,  0.567674740000000 ]
    mass: 78.960000
    reduced_to: 55
  - symbol: Se # 94
    coordinates: [  0.222222223333333,  0.444444443333333,  0.567674740000000 ]
    mass: 78.960000
    reduced_to: 55
  - symbol: Se # 95
    coordinates: [  0.555555556666667,  0.444444443333333,  0.567674740000000 ]
    mass: 78.960000
    reduced_to: 55
  - symbol: Se # 96
    coordinates: [  0.888888890000000,  0.444444443333333,  0.567674740000000 ]
    mass: 78.960000
    reduced_to: 55
  - symbol: Se # 97
    coordinates: [  0.222222223333333,  0.777777776666667,  0.567674740000000 ]
    mass: 78.960000
    reduced_to: 55
  - symbol: Se # 98
    coordinates: [  0.555555556666667,  0.777777776666667,  0.567674740000000 ]
    mass: 78.960000
    reduced_to: 55
  - symbol: Se # 99
    coordinates: [  0.888888890000000,  0.777777776666667,  0.567674740000000 ]
    mass: 78.960000
    reduced_to: 55
  - symbol: Se # 100
    coordinates: [  0.000000000000000,  0.000000000000000,  0.432011150000000 ]
    mass: 78.960000
    reduced_to: 64
  - symbol: Se # 101
    coordinates: [  0.333333333333333,  0.000000000000000,  0.432011150000000 ]
    mass: 78.960000
    reduced_to: 64
  - symbol: Se # 102
    coordinates: [  0.666666666666667,  0.000000000000000,  0.432011150000000 ]
    mass: 78.960000
    reduced_to: 64
  - symbol: Se # 103
    coordinates: [  0.000000000000000,  0.333333333333333,  0.432011150000000 ]
    mass: 78.960000
    reduced_to: 64
  - symbol: Se # 104
    coordinates: [  0.333333333333333,  0.333333333333333,  0.432011150000000 ]
    mass: 78.960000
    reduced_to: 64
  - symbol: Se # 105
    coordinates: [  0.666666666666667,  0.333333333333333,  0.432011150000000 ]
    mass: 78.960000
    reduced_to: 64
  - symbol: Se # 106
    coordinates: [  0.000000000000000,  0.666666666666667,  0.432011150000000 ]
    mass: 78.960000
    reduced_to: 64
  - symbol: Se # 107
    coordinates: [  0.333333333333333,  0.666666666666667,  0.432011150000000 ]
    mass: 78.960000
    reduced_to: 64
  - symbol: Se # 108
    coordinates: [  0.666666666666667,  0.666666666666667,  0.432011150000000 ]
    mass: 78.960000
    reduced_to: 64
